 Entering Gaussian System, Link 0=g09
 Input=put_cargas.com
 Output=put_cargas.log
 Initial command:
 /share/apps/g09/l1.exe /home/slabanda/ligandos/PUT/Gau-26501.inp -scrdir=/home/slabanda/ligandos/PUT/
 Entering Link 1 = /share/apps/g09/l1.exe PID=     26502.
  
 Copyright (c) 1988,1990,1992,1993,1995,1998,2003,2009, Gaussian, Inc.
                  All Rights Reserved.
  
 This is part of the Gaussian(R) 09 program.  It is based on
 the Gaussian(R) 03 system (copyright 2003, Gaussian, Inc.),
 the Gaussian(R) 98 system (copyright 1998, Gaussian, Inc.),
 the Gaussian(R) 94 system (copyright 1995, Gaussian, Inc.),
 the Gaussian 92(TM) system (copyright 1992, Gaussian, Inc.),
 the Gaussian 90(TM) system (copyright 1990, Gaussian, Inc.),
 the Gaussian 88(TM) system (copyright 1988, Gaussian, Inc.),
 the Gaussian 86(TM) system (copyright 1986, Carnegie Mellon
 University), and the Gaussian 82(TM) system (copyright 1983,
 Carnegie Mellon University). Gaussian is a federally registered
 trademark of Gaussian, Inc.
  
 This software contains proprietary and confidential information,
 including trade secrets, belonging to Gaussian, Inc.
  
 This software is provided under written license and may be
 used, copied, transmitted, or stored only in accord with that
 written license.
  
 The following legend is applicable only to US Government
 contracts under FAR:
  
                    RESTRICTED RIGHTS LEGEND
  
 Use, reproduction and disclosure by the US Government is
 subject to restrictions as set forth in subparagraphs (a)
 and (c) of the Commercial Computer Software - Restricted
 Rights clause in FAR 52.227-19.
  
 Gaussian, Inc.
 340 Quinnipiac St., Bldg. 40, Wallingford CT 06492
  
  
 ---------------------------------------------------------------
 Warning -- This program may not be used in any manner that
 competes with the business of Gaussian, Inc. or will provide
 assistance to any competitor of Gaussian, Inc.  The licensee
 of this program is prohibited from giving any competitor of
 Gaussian, Inc. access to this program.  By using this program,
 the user acknowledges that Gaussian, Inc. is engaged in the
 business of creating and licensing software in the field of
 computational chemistry and represents and warrants to the
 licensee that it is not a competitor of Gaussian, Inc. and that
 it will not use this program in any manner prohibited above.
 ---------------------------------------------------------------
  

 Cite this work as:
 Gaussian 09, Revision A.01,
 M. J. Frisch, G. W. Trucks, H. B. Schlegel, G. E. Scuseria, 
 M. A. Robb, J. R. Cheeseman, G. Scalmani, V. Barone, B. Mennucci, 
 G. A. Petersson, H. Nakatsuji, M. Caricato, X. Li, H. P. Hratchian, 
 A. F. Izmaylov, J. Bloino, G. Zheng, J. L. Sonnenberg, M. Hada, 
 M. Ehara, K. Toyota, R. Fukuda, J. Hasegawa, M. Ishida, T. Nakajima, 
 Y. Honda, O. Kitao, H. Nakai, T. Vreven, J. A. Montgomery, Jr., 
 J. E. Peralta, F. Ogliaro, M. Bearpark, J. J. Heyd, E. Brothers, 
 K. N. Kudin, V. N. Staroverov, R. Kobayashi, J. Normand, 
 K. Raghavachari, A. Rendell, J. C. Burant, S. S. Iyengar, J. Tomasi, 
 M. Cossi, N. Rega, J. M. Millam, M. Klene, J. E. Knox, J. B. Cross, 
 V. Bakken, C. Adamo, J. Jaramillo, R. Gomperts, R. E. Stratmann, 
 O. Yazyev, A. J. Austin, R. Cammi, C. Pomelli, J. W. Ochterski, 
 R. L. Martin, K. Morokuma, V. G. Zakrzewski, G. A. Voth, 
 P. Salvador, J. J. Dannenberg, S. Dapprich, A. D. Daniels, 
 O. Farkas, J. B. Foresman, J. V. Ortiz, J. Cioslowski, 
 and D. J. Fox, Gaussian, Inc., Wallingford CT, 2009.
 
 ******************************************
 Gaussian 09:  EM64L-G09RevA.01  8-May-2009
                16-Mar-2023 
 ******************************************
 %nproc=4
 Will use up to    4 processors via shared memory.
 %chk=put_cargas.chk
 ----------------------------------------------------------------------
 #P HF/6-31G* POP(MK) IOP(6/33=2) scf=direct Test geom=allcheck guess=r
 ead
 ----------------------------------------------------------------------
 1/29=7,38=1/1;
 2/12=2,40=1/2;
 3/5=1,6=6,7=1,11=9,14=-4,16=1,25=1,30=1,116=-2/1,2,3;
 4/5=1/1;
 5/5=2,38=6/2;
 6/7=2,8=2,9=2,10=2,15=8,20=1,28=1,33=2/1,2;
 99/5=1,9=1/99;
 Leave Link    1 at Thu Mar 16 16:54:50 2023, MaxMem=          0 cpu:       1.3
 (Enter /share/apps/g09/l101.exe)
 ----------------------------------------
 Optimizacion de estructura de putrescina
 ----------------------------------------
 Redundant internal coordinates taken from checkpoint file:
 put_cargas.chk
 Charge =  2 Multiplicity = 1
 N,0,3.1591760383,0.2517860801,0.0017642143
 N,0,-3.1591775841,-0.2518417916,-0.0028701006
 C,0,0.6563180934,0.4024845466,-0.0018488582
 C,0,-0.6563185797,-0.4025474684,0.0004216734
 C,0,1.8669101982,-0.5314668294,0.0032114319
 C,0,-1.8669078998,0.5314030813,-0.0053857611
 H,0,0.6894038461,1.0482770078,0.8716986426
 H,0,0.6910362752,1.0407593742,-0.8808444564
 H,0,-0.6912147516,-1.0404397666,0.879684833
 H,0,-0.6892285557,-1.0487200016,-0.8728541661
 H,0,1.8961163328,-1.1560887472,0.8851828224
 H,0,1.898207852,-1.162818163,-0.8738810013
 H,0,-1.8962565192,1.1550504214,-0.8880408374
 H,0,-1.898058031,1.163723207,0.8710147347
 H,0,3.2481435965,0.8416784926,-0.8150295423
 H,0,3.9588072097,-0.3692067984,0.0042040827
 H,0,3.2469625513,0.8465644304,0.8151334494
 H,0,-3.9588059309,0.3691510123,-0.0061073062
 H,0,-3.2481222251,-0.8406581448,0.8147006425
 H,0,-3.2469919165,-0.8476899426,-0.8154544973
 Recover connectivity data from disk.
                    Isotopes and Nuclear Properties:
 (Nuclear quadrupole moments (NQMom) in fm**2, nuclear magnetic moments (NMagM)
  in nuclear magnetons)

  Atom         1           2           3           4           5           6           7           8           9          10
 IAtWgt=          14          14          12          12          12          12           1           1           1           1
 AtmWgt=  14.0030740  14.0030740  12.0000000  12.0000000  12.0000000  12.0000000   1.0078250   1.0078250   1.0078250   1.0078250
 NucSpn=           2           2           0           0           0           0           1           1           1           1
 AtZEff=  -4.5500000  -4.5500000  -3.6000000  -3.6000000  -3.6000000  -3.6000000  -1.0000000  -1.0000000  -1.0000000  -1.0000000
 NQMom=    2.0440000   2.0440000   0.0000000   0.0000000   0.0000000   0.0000000   0.0000000   0.0000000   0.0000000   0.0000000
 NMagM=    0.4037610   0.4037610   0.0000000   0.0000000   0.0000000   0.0000000   2.7928460   2.7928460   2.7928460   2.7928460

  Atom        11          12          13          14          15          16          17          18          19          20
 IAtWgt=           1           1           1           1           1           1           1           1           1           1
 AtmWgt=   1.0078250   1.0078250   1.0078250   1.0078250   1.0078250   1.0078250   1.0078250   1.0078250   1.0078250   1.0078250
 NucSpn=           1           1           1           1           1           1           1           1           1           1
 AtZEff=  -1.0000000  -1.0000000  -1.0000000  -1.0000000  -1.0000000  -1.0000000  -1.0000000  -1.0000000  -1.0000000  -1.0000000
 NQMom=    0.0000000   0.0000000   0.0000000   0.0000000   0.0000000   0.0000000   0.0000000   0.0000000   0.0000000   0.0000000
 NMagM=    2.7928460   2.7928460   2.7928460   2.7928460   2.7928460   2.7928460   2.7928460   2.7928460   2.7928460   2.7928460
 Leave Link  101 at Thu Mar 16 16:54:51 2023, MaxMem=   33554432 cpu:       0.4
 (Enter /share/apps/g09/l202.exe)
                          Input orientation:                          
 ---------------------------------------------------------------------
 Center     Atomic      Atomic             Coordinates (Angstroms)
 Number     Number       Type             X           Y           Z
 ---------------------------------------------------------------------
      1          7           0        3.159176    0.251786    0.001764
      2          7           0       -3.159178   -0.251842   -0.002870
      3          6           0        0.656318    0.402485   -0.001849
      4          6           0       -0.656319   -0.402547    0.000422
      5          6           0        1.866910   -0.531467    0.003211
      6          6           0       -1.866908    0.531403   -0.005386
      7          1           0        0.689404    1.048277    0.871699
      8          1           0        0.691036    1.040759   -0.880844
      9          1           0       -0.691215   -1.040440    0.879685
     10          1           0       -0.689229   -1.048720   -0.872854
     11          1           0        1.896116   -1.156089    0.885183
     12          1           0        1.898208   -1.162818   -0.873881
     13          1           0       -1.896257    1.155050   -0.888041
     14          1           0       -1.898058    1.163723    0.871015
     15          1           0        3.248144    0.841678   -0.815030
     16          1           0        3.958807   -0.369207    0.004204
     17          1           0        3.246963    0.846564    0.815133
     18          1           0       -3.958806    0.369151   -0.006107
     19          1           0       -3.248122   -0.840658    0.814701
     20          1           0       -3.246992   -0.847690   -0.815454
 ---------------------------------------------------------------------
                    Distance matrix (angstroms):
                    1          2          3          4          5
     1  N    0.000000
     2  N    6.338395   0.000000
     3  C    2.507393   3.871195   0.000000
     4  C    3.871195   2.507394   1.539837   0.000000
     5  C    1.511105   5.033864   1.528994   2.526522   0.000000
     6  C    5.033861   1.511105   2.526520   1.528994   3.882160
     7  H    2.736962   4.155329   1.086843   2.162171   2.153226
     8  H    2.737369   4.155214   1.086846   2.162205   2.153167
     9  H    4.155250   2.737084   2.162170   1.086843   2.751593
    10  H    4.155297   2.737250   2.162207   1.086845   2.751161
    11  H    2.087549   5.211746   2.180155   2.804559   1.081147
    12  H    2.087558   5.212071   2.180115   2.804999   1.081145
    13  H    5.212009   2.087545   2.804876   2.180120   4.219016
    14  H    5.211798   2.087564   2.804677   2.180150   4.219211
    15  H    1.011455   6.550508   2.751675   4.178263   2.112546
    16  H    1.012447   7.118956   3.391457   4.615248   2.098181
    17  H    1.011453   6.550897   2.752473   4.178473   2.112518
    18  H    7.118954   1.012447   4.615246   3.391457   5.894927
    19  H    6.550402   1.011453   4.178135   2.751806   5.188224
    20  H    6.551006   1.011454   4.178603   2.752343   5.188661
                    6          7          8          9         10
     6  C    0.000000
     7  H    2.751575   0.000000
     8  H    2.751173   1.752560   0.000000
     9  H    2.153206   2.503779   3.056382   0.000000
    10  H    2.153188   3.056385   2.504220   1.752560   0.000000
    11  H    4.219134   2.513079   3.065487   2.589920   3.128295
    12  H    4.219095   3.065485   2.512581   3.129709   2.589951
    13  H    1.081146   3.129492   2.589826   3.065478   2.512718
    14  H    1.081146   2.590036   3.128504   2.512943   3.065494
    15  H    5.188019   3.071626   2.565690   4.683265   4.368049
    16  H    5.894926   3.667534   3.667375   4.779092   4.778620
    17  H    5.188858   2.566124   3.073567   4.367401   4.683482
    18  H    2.098181   4.778871   4.778834   3.667250   3.667662
    19  H    2.112545   4.367544   4.683116   2.565524   3.072307
    20  H    2.112520   4.683630   4.367904   3.072889   2.566293
                   11         12         13         14         15
    11  H    0.000000
    12  H    1.759078   0.000000
    13  H    4.782027   4.446423   0.000000
    14  H    4.447189   4.782164   1.759078   0.000000
    15  H    2.951233   2.417395   5.154453   5.424929   0.000000
    16  H    2.376973   2.376325   6.115655   6.115890   1.625555
    17  H    2.416674   2.951191   5.426663   5.155090   1.630171
    18  H    6.115625   6.115928   2.376879   2.376420   7.267583
    19  H    5.154382   5.425846   2.951224   2.417310   6.905632
    20  H    5.425757   5.155172   2.416759   2.951200   6.711241
                   16         17         18         19         20
    16  H    0.000000
    17  H    1.625555   0.000000
    18  H    7.951973   7.268113   0.000000
    19  H    7.267668   6.710652   1.625557   0.000000
    20  H    7.268035   6.906574   1.625553   1.630171   0.000000
 Stoichiometry    C4H14N2(2+)
 Framework group  C1[X(C4H14N2)]
 Deg. of freedom    54
 Full point group                 C1      NOp   1
 Largest Abelian subgroup         C1      NOp   1
 Largest concise Abelian subgroup C1      NOp   1
                         Standard orientation:                         
 ---------------------------------------------------------------------
 Center     Atomic      Atomic             Coordinates (Angstroms)
 Number     Number       Type             X           Y           Z
 ---------------------------------------------------------------------
      1          7           0       -3.163117   -0.196222    0.000246
      2          7           0        3.163118    0.196219    0.000185
      3          6           0       -0.663294   -0.390915   -0.000017
      4          6           0        0.663294    0.390918    0.000126
      5          6           0       -1.857279    0.564189   -0.000362
      6          6           0        1.857277   -0.564189   -0.000276
      7          1           0       -0.708602   -1.032164    0.876325
      8          1           0       -0.708355   -1.032353   -0.876235
      9          1           0        0.708526    1.031972    0.876614
     10          1           0        0.708433    1.032551   -0.875946
     11          1           0       -1.876375    1.193115    0.878824
     12          1           0       -1.876595    1.192116   -0.880254
     13          1           0        1.876534   -1.192145   -0.880150
     14          1           0        1.876429   -1.193085    0.878928
     15          1           0       -3.261630   -0.788058   -0.814043
     16          1           0       -3.951706    0.438738   -0.000903
     17          1           0       -3.262160   -0.785769    0.816126
     18          1           0        3.951705   -0.438744    0.000536
     19          1           0        3.261589    0.786983    0.815255
     20          1           0        3.262207    0.786839   -0.814916
 ---------------------------------------------------------------------
 Rotational constants (GHZ):     14.7814678      1.0683684      1.0325583
 Leave Link  202 at Thu Mar 16 16:54:52 2023, MaxMem=   33554432 cpu:       0.1
 (Enter /share/apps/g09/l301.exe)
 Standard basis: 6-31G(d) (6D, 7F)
 Ernie: Thresh=  0.10000D-02 Tol=  0.10000D-05 Strict=F.
 There are   118 symmetry adapted basis functions of A   symmetry.
 Integral buffers will be    131072 words long.
 Raffenetti 1 integral format.
 Two-electron integral symmetry is turned on.
   118 basis functions,   224 primitive gaussians,   118 cartesian basis functions
    25 alpha electrons       25 beta electrons
       nuclear repulsion energy       264.8464337958 Hartrees.
 IExCor=    0 DFT=F Ex=HF Corr=None ExCW=0 ScaHFX=  1.000000
 ScaDFX=  1.000000  1.000000  1.000000  1.000000 ScalE2=  1.000000  1.000000
 IRadAn=      0 IRanWt=     -1 IRanGd=            0 ICorTp=0
 NAtoms=   20 NActive=   20 NUniq=   20 SFac= 7.50D-01 NAtFMM=   80 NAOKFM=F Big=F
 Leave Link  301 at Thu Mar 16 16:54:53 2023, MaxMem=   33554432 cpu:       0.5
 (Enter /share/apps/g09/l302.exe)
 NPDir=0 NMtPBC=     1 NCelOv=     1 NCel=       1 NClECP=     1 NCelD=      1
         NCelK=      1 NCelE2=     1 NClLst=     1 CellRange=     0.0.
 One-electron integrals computed using PRISM.
 NBasis=   118 RedAO= T  NBF=   118
 NBsUse=   118 1.00D-06 NBFU=   118
 Leave Link  302 at Thu Mar 16 16:54:54 2023, MaxMem=   33554432 cpu:       0.6
 (Enter /share/apps/g09/l303.exe)
 DipDrv:  MaxL=1.
 Leave Link  303 at Thu Mar 16 16:54:54 2023, MaxMem=   33554432 cpu:       0.1
 (Enter /share/apps/g09/l401.exe)
 Initial guess read from the checkpoint file:  put_cargas.chk
 B after Tr=     0.000000    0.000000    0.000000
         Rot=    1.000000    0.000000    0.000000    0.000000 Ang=   0.00 deg.
 Guess basis will be translated and rotated to current coordinates.
 Initial guess orbital symmetries:
       Occupied  (A) (A) (A) (A) (A) (A) (A) (A) (A) (A) (A) (A)
                 (A) (A) (A) (A) (A) (A) (A) (A) (A) (A) (A) (A)
                 (A)
       Virtual   (A) (A) (A) (A) (A) (A) (A) (A) (A) (A) (A) (A)
                 (A) (A) (A) (A) (A) (A) (A) (A) (A) (A) (A) (A)
                 (A) (A) (A) (A) (A) (A) (A) (A) (A) (A) (A) (A)
                 (A) (A) (A) (A) (A) (A) (A) (A) (A) (A) (A) (A)
                 (A) (A) (A) (A) (A) (A) (A) (A) (A) (A) (A) (A)
                 (A) (A) (A) (A) (A) (A) (A) (A) (A) (A) (A) (A)
                 (A) (A) (A) (A) (A) (A) (A) (A) (A) (A) (A) (A)
                 (A) (A) (A) (A) (A) (A) (A) (A) (A)
 The electronic state of the initial guess is 1-A.
 Leave Link  401 at Thu Mar 16 16:54:55 2023, MaxMem=   33554432 cpu:       1.0
 (Enter /share/apps/g09/l502.exe)
 Closed shell SCF:
 Requested convergence on RMS density matrix=1.00D-08 within 128 cycles.
 Requested convergence on MAX density matrix=1.00D-06.
 Requested convergence on             energy=1.00D-06.
 No special actions if energy rises.
 Using DIIS extrapolation, IDIIS=  1040.
 Integral symmetry usage will be decided dynamically.
 Keep R1 ints in memory in canonical form, NReq=25554809.
 IEnd=       61544 IEndB=       61544 NGot=    33554432 MDV=     8872812
 LenX=     8872812 LenY=     8858447
 Symmetry not used in FoFDir.
 MinBra= 0 MaxBra= 2 Meth= 1.
 IRaf=       0 NMat=   1 IRICut=       1 DoRegI=T DoRafI=F ISym2E= 0 JSym2E=0.

 Cycle   1  Pass 1  IDiag  1:
 E= -267.977650175572    
 DIIS: error= 2.76D-03 at cycle   1 NSaved=   1.
 NSaved= 1 IEnMin= 1 EnMin= -267.977650175572     IErMin= 1 ErrMin= 2.76D-03
 ErrMax= 2.76D-03 EMaxC= 1.00D-01 BMatC= 1.20D-03 BMatP= 1.20D-03
 IDIUse=3 WtCom= 9.72D-01 WtEn= 2.76D-02
 Coeff-Com:  0.100D+01
 Coeff-En:   0.100D+01
 Coeff:      0.100D+01
 Gap=     0.672 Goal=   None    Shift=    0.000
 GapD=    0.672 DampG=2.000 DampE=1.000 DampFc=2.0000 IDamp=-1.
 RMSDP=3.87D-04 MaxDP=9.93D-03              OVMax= 3.99D-03

 Cycle   2  Pass 1  IDiag  1:
 E= -267.978521944744     Delta-E=       -0.000871769172 Rises=F Damp=F
 DIIS: error= 8.00D-04 at cycle   2 NSaved=   2.
 NSaved= 2 IEnMin= 2 EnMin= -267.978521944744     IErMin= 2 ErrMin= 8.00D-04
 ErrMax= 8.00D-04 EMaxC= 1.00D-01 BMatC= 5.25D-05 BMatP= 1.20D-03
 IDIUse=3 WtCom= 9.92D-01 WtEn= 8.00D-03
 Coeff-Com: -0.671D-02 0.101D+01
 Coeff-En:   0.000D+00 0.100D+01
 Coeff:     -0.666D-02 0.101D+01
 Gap=     0.672 Goal=   None    Shift=    0.000
 RMSDP=7.94D-05 MaxDP=1.53D-03 DE=-8.72D-04 OVMax= 1.58D-03

 Cycle   3  Pass 1  IDiag  1:
 E= -267.978560872421     Delta-E=       -0.000038927677 Rises=F Damp=F
 DIIS: error= 2.83D-04 at cycle   3 NSaved=   3.
 NSaved= 3 IEnMin= 3 EnMin= -267.978560872421     IErMin= 3 ErrMin= 2.83D-04
 ErrMax= 2.83D-04 EMaxC= 1.00D-01 BMatC= 1.04D-05 BMatP= 5.25D-05
 IDIUse=3 WtCom= 9.97D-01 WtEn= 2.83D-03
 Coeff-Com: -0.473D-01 0.290D+00 0.757D+00
 Coeff-En:   0.000D+00 0.000D+00 0.100D+01
 Coeff:     -0.471D-01 0.289D+00 0.758D+00
 Gap=     0.673 Goal=   None    Shift=    0.000
 RMSDP=1.66D-05 MaxDP=5.67D-04 DE=-3.89D-05 OVMax= 5.10D-04

 Cycle   4  Pass 1  IDiag  1:
 E= -267.978569101530     Delta-E=       -0.000008229109 Rises=F Damp=F
 DIIS: error= 2.66D-05 at cycle   4 NSaved=   4.
 NSaved= 4 IEnMin= 4 EnMin= -267.978569101530     IErMin= 4 ErrMin= 2.66D-05
 ErrMax= 2.66D-05 EMaxC= 1.00D-01 BMatC= 6.88D-08 BMatP= 1.04D-05
 IDIUse=1 WtCom= 1.00D+00 WtEn= 0.00D+00
 Coeff-Com:  0.660D-03-0.216D-01-0.145D-01 0.104D+01
 Coeff:      0.660D-03-0.216D-01-0.145D-01 0.104D+01
 Gap=     0.672 Goal=   None    Shift=    0.000
 RMSDP=2.71D-06 MaxDP=4.89D-05 DE=-8.23D-06 OVMax= 7.62D-05

 Cycle   5  Pass 1  IDiag  1:
 E= -267.978569183696     Delta-E=       -0.000000082166 Rises=F Damp=F
 DIIS: error= 7.62D-06 at cycle   5 NSaved=   5.
 NSaved= 5 IEnMin= 5 EnMin= -267.978569183696     IErMin= 5 ErrMin= 7.62D-06
 ErrMax= 7.62D-06 EMaxC= 1.00D-01 BMatC= 7.25D-09 BMatP= 6.88D-08
 IDIUse=1 WtCom= 1.00D+00 WtEn= 0.00D+00
 Coeff-Com:  0.242D-02-0.179D-01-0.395D-01 0.175D+00 0.880D+00
 Coeff:      0.242D-02-0.179D-01-0.395D-01 0.175D+00 0.880D+00
 Gap=     0.673 Goal=   None    Shift=    0.000
 RMSDP=8.89D-07 MaxDP=1.19D-05 DE=-8.22D-08 OVMax= 2.01D-05

 Cycle   6  Pass 1  IDiag  1:
 E= -267.978569192668     Delta-E=       -0.000000008972 Rises=F Damp=F
 DIIS: error= 1.75D-06 at cycle   6 NSaved=   6.
 NSaved= 6 IEnMin= 6 EnMin= -267.978569192668     IErMin= 6 ErrMin= 1.75D-06
 ErrMax= 1.75D-06 EMaxC= 1.00D-01 BMatC= 3.52D-10 BMatP= 7.25D-09
 IDIUse=1 WtCom= 1.00D+00 WtEn= 0.00D+00
 Coeff-Com:  0.210D-04 0.812D-03 0.914D-03-0.633D-01-0.311D-02 0.106D+01
 Coeff:      0.210D-04 0.812D-03 0.914D-03-0.633D-01-0.311D-02 0.106D+01
 Gap=     0.673 Goal=   None    Shift=    0.000
 RMSDP=2.27D-07 MaxDP=4.70D-06 DE=-8.97D-09 OVMax= 7.36D-06

 Cycle   7  Pass 1  IDiag  1:
 E= -267.978569193296     Delta-E=       -0.000000000628 Rises=F Damp=F
 DIIS: error= 3.53D-07 at cycle   7 NSaved=   7.
 NSaved= 7 IEnMin= 7 EnMin= -267.978569193296     IErMin= 7 ErrMin= 3.53D-07
 ErrMax= 3.53D-07 EMaxC= 1.00D-01 BMatC= 1.79D-11 BMatP= 3.52D-10
 IDIUse=1 WtCom= 1.00D+00 WtEn= 0.00D+00
 Coeff-Com: -0.116D-03 0.697D-03 0.193D-02 0.179D-03-0.450D-01-0.135D+00
 Coeff-Com:  0.118D+01
 Coeff:     -0.116D-03 0.697D-03 0.193D-02 0.179D-03-0.450D-01-0.135D+00
 Coeff:      0.118D+01
 Gap=     0.673 Goal=   None    Shift=    0.000
 RMSDP=6.53D-08 MaxDP=1.27D-06 DE=-6.28D-10 OVMax= 2.07D-06

 Cycle   8  Pass 1  IDiag  1:
 E= -267.978569193336     Delta-E=       -0.000000000040 Rises=F Damp=F
 DIIS: error= 1.05D-07 at cycle   8 NSaved=   8.
 NSaved= 8 IEnMin= 8 EnMin= -267.978569193336     IErMin= 8 ErrMin= 1.05D-07
 ErrMax= 1.05D-07 EMaxC= 1.00D-01 BMatC= 1.22D-12 BMatP= 1.79D-11
 IDIUse=1 WtCom= 1.00D+00 WtEn= 0.00D+00
 Coeff-Com: -0.159D-04 0.503D-04 0.151D-03 0.308D-02-0.434D-02-0.661D-01
 Coeff-Com:  0.101D+00 0.966D+00
 Coeff:     -0.159D-04 0.503D-04 0.151D-03 0.308D-02-0.434D-02-0.661D-01
 Coeff:      0.101D+00 0.966D+00
 Gap=     0.673 Goal=   None    Shift=    0.000
 RMSDP=1.35D-08 MaxDP=2.11D-07 DE=-4.01D-11 OVMax= 3.48D-07

 Cycle   9  Pass 1  IDiag  1:
 E= -267.978569193336     Delta-E=       -0.000000000001 Rises=F Damp=F
 DIIS: error= 2.93D-08 at cycle   9 NSaved=   9.
 NSaved= 9 IEnMin= 9 EnMin= -267.978569193336     IErMin= 9 ErrMin= 2.93D-08
 ErrMax= 2.93D-08 EMaxC= 1.00D-01 BMatC= 9.81D-14 BMatP= 1.22D-12
 IDIUse=1 WtCom= 1.00D+00 WtEn= 0.00D+00
 Coeff-Com:  0.104D-04-0.604D-04-0.205D-03-0.341D-04 0.444D-02 0.129D-01
 Coeff-Com: -0.112D+00 0.204D-02 0.109D+01
 Coeff:      0.104D-04-0.604D-04-0.205D-03-0.341D-04 0.444D-02 0.129D-01
 Coeff:     -0.112D+00 0.204D-02 0.109D+01
 Gap=     0.673 Goal=   None    Shift=    0.000
 RMSDP=5.05D-09 MaxDP=8.69D-08 DE=-7.96D-13 OVMax= 1.52D-07

 SCF Done:  E(RHF) =  -267.978569193     A.U. after    9 cycles
             Convg  =    0.5054D-08             -V/T =  2.0011
 KE= 2.676885641576D+02 PE=-1.135658074177D+03 EE= 3.351445070302D+02
 Leave Link  502 at Thu Mar 16 16:54:57 2023, MaxMem=   33554432 cpu:       5.0
 (Enter /share/apps/g09/l601.exe)
 Copying SCF densities to generalized density rwf, IOpCl= 0 IROHF=0.

 **********************************************************************

            Population analysis using the SCF density.

 **********************************************************************

 Orbital symmetries:
 BldTbl:  Degeneracy threshold= 1.00D-02
       Occupied  (A) (A) (A) (A) (A) (A) (A) (A) (A) (A) (A) (A)
                 (A) (A) (A) (A) (A) (A) (A) (A) (A) (A) (A) (A)
                 (A)
       Virtual   (A) (A) (A) (A) (A) (A) (A) (A) (A) (A) (A) (A)
                 (A) (A) (A) (A) (A) (A) (A) (A) (A) (A) (A) (A)
                 (A) (A) (A) (A) (A) (A) (A) (A) (A) (A) (A) (A)
                 (A) (A) (A) (A) (A) (A) (A) (A) (A) (A) (A) (A)
                 (A) (A) (A) (A) (A) (A) (A) (A) (A) (A) (A) (A)
                 (A) (A) (A) (A) (A) (A) (A) (A) (A) (A) (A) (A)
                 (A) (A) (A) (A) (A) (A) (A) (A) (A) (A) (A) (A)
                 (A) (A) (A) (A) (A) (A) (A) (A) (A)
 The electronic state is 1-A.
 Alpha  occ. eigenvalues --  -16.00181 -16.00181 -11.59750 -11.59750 -11.54542
 Alpha  occ. eigenvalues --  -11.54485  -1.62460  -1.62389  -1.39790  -1.31153
 Alpha  occ. eigenvalues --   -1.20669  -1.14429  -1.08638  -1.08420  -1.07483
 Alpha  occ. eigenvalues --   -1.05643  -0.97712  -0.96316  -0.96049  -0.90402
 Alpha  occ. eigenvalues --   -0.86855  -0.83813  -0.82348  -0.80989  -0.79574
 Alpha virt. eigenvalues --   -0.12324  -0.11832  -0.06622  -0.05525  -0.04632
 Alpha virt. eigenvalues --   -0.03755  -0.03413  -0.02005   0.00334   0.00358
 Alpha virt. eigenvalues --    0.01585   0.03368   0.05033   0.05404   0.05529
 Alpha virt. eigenvalues --    0.06861   0.08504   0.12847   0.13302   0.35939
 Alpha virt. eigenvalues --    0.39477   0.40352   0.42639   0.43141   0.48411
 Alpha virt. eigenvalues --    0.48525   0.55314   0.56152   0.58776   0.61580
 Alpha virt. eigenvalues --    0.62929   0.66610   0.72749   0.72797   0.78482
 Alpha virt. eigenvalues --    0.78552   0.80079   0.80212   0.81618   0.82160
 Alpha virt. eigenvalues --    0.83154   0.83637   0.86946   0.87487   0.87774
 Alpha virt. eigenvalues --    0.89756   0.90568   0.90852   0.92088   0.93316
 Alpha virt. eigenvalues --    0.96370   1.11799   1.24527   1.31235   1.34664
 Alpha virt. eigenvalues --    1.36528   1.40938   1.45411   1.54505   1.56308
 Alpha virt. eigenvalues --    1.62860   1.76940   1.80042   1.84637   1.86726
 Alpha virt. eigenvalues --    1.91139   1.92110   1.92394   1.98308   1.98667
 Alpha virt. eigenvalues --    2.01783   2.05683   2.06995   2.25835   2.27534
 Alpha virt. eigenvalues --    2.29338   2.34474   2.37815   2.39407   2.44165
 Alpha virt. eigenvalues --    2.46676   2.47288   2.55993   2.59315   2.62987
 Alpha virt. eigenvalues --    2.77364   2.84661   3.84559   3.85957   4.28063
 Alpha virt. eigenvalues --    4.38830   4.48351   4.64255
          Condensed to atoms (all electrons):
              1          2          3          4          5          6
     1  N    6.908660   0.000000  -0.055918   0.002652   0.156861  -0.000050
     2  N    0.000000   6.908660   0.002652  -0.055918  -0.000050   0.156861
     3  C   -0.055918   0.002652   5.142321   0.339809   0.324966  -0.043980
     4  C    0.002652  -0.055918   0.339809   5.142320  -0.043980   0.324966
     5  C    0.156861  -0.000050   0.324966  -0.043980   5.094895   0.003824
     6  C   -0.000050   0.156861  -0.043980   0.324966   0.003824   5.094895
     7  H   -0.001320  -0.000015   0.397048  -0.033518  -0.037407  -0.003279
     8  H   -0.001320  -0.000015   0.397045  -0.033522  -0.037402  -0.003280
     9  H   -0.000015  -0.001322  -0.033517   0.397044  -0.003280  -0.037402
    10  H   -0.000015  -0.001318  -0.033522   0.397048  -0.003279  -0.037407
    11  H   -0.034607   0.000000  -0.033503  -0.001358   0.401264  -0.000051
    12  H   -0.034606   0.000000  -0.033498  -0.001357   0.401265  -0.000051
    13  H    0.000000  -0.034606  -0.001357  -0.033501  -0.000051   0.401263
    14  H    0.000000  -0.034607  -0.001357  -0.033500  -0.000051   0.401266
    15  H    0.303768   0.000000  -0.001296  -0.000048  -0.014561  -0.000001
    16  H    0.307822   0.000000   0.002908  -0.000054  -0.017326   0.000001
    17  H    0.303771   0.000000  -0.001291  -0.000049  -0.014559  -0.000001
    18  H    0.000000   0.307822  -0.000054   0.002908   0.000001  -0.017326
    19  H    0.000000   0.303769  -0.000049  -0.001295  -0.000001  -0.014560
    20  H    0.000000   0.303771  -0.000049  -0.001292  -0.000001  -0.014559
              7          8          9         10         11         12
     1  N   -0.001320  -0.001320  -0.000015  -0.000015  -0.034607  -0.034606
     2  N   -0.000015  -0.000015  -0.001322  -0.001318   0.000000   0.000000
     3  C    0.397048   0.397045  -0.033517  -0.033522  -0.033503  -0.033498
     4  C   -0.033518  -0.033522   0.397044   0.397048  -0.001358  -0.001357
     5  C   -0.037407  -0.037402  -0.003280  -0.003279   0.401264   0.401265
     6  C   -0.003279  -0.003280  -0.037402  -0.037407  -0.000051  -0.000051
     7  H    0.471056  -0.023634  -0.001590   0.003066  -0.001775   0.002745
     8  H   -0.023634   0.471051   0.003066  -0.001585   0.002745  -0.001779
     9  H   -0.001590   0.003066   0.471056  -0.023634   0.001112   0.000259
    10  H    0.003066  -0.001585  -0.023634   0.471051   0.000260   0.001111
    11  H   -0.001775   0.002745   0.001112   0.000260   0.411824  -0.017913
    12  H    0.002745  -0.001779   0.000259   0.001111  -0.017913   0.411808
    13  H    0.000259   0.001111   0.002745  -0.001778  -0.000003   0.000012
    14  H    0.001111   0.000260  -0.001776   0.002745   0.000012  -0.000003
    15  H   -0.000024   0.002025   0.000001   0.000007   0.002351  -0.001757
    16  H   -0.000079  -0.000079   0.000000   0.000000  -0.001765  -0.001768
    17  H    0.002021  -0.000024   0.000007   0.000001  -0.001763   0.002351
    18  H    0.000000   0.000000  -0.000079  -0.000079   0.000000   0.000000
    19  H    0.000007   0.000001   0.002025  -0.000024  -0.000001   0.000000
    20  H    0.000001   0.000007  -0.000024   0.002020   0.000000  -0.000001
             13         14         15         16         17         18
     1  N    0.000000   0.000000   0.303768   0.307822   0.303771   0.000000
     2  N   -0.034606  -0.034607   0.000000   0.000000   0.000000   0.307822
     3  C   -0.001357  -0.001357  -0.001296   0.002908  -0.001291  -0.000054
     4  C   -0.033501  -0.033500  -0.000048  -0.000054  -0.000049   0.002908
     5  C   -0.000051  -0.000051  -0.014561  -0.017326  -0.014559   0.000001
     6  C    0.401263   0.401266  -0.000001   0.000001  -0.000001  -0.017326
     7  H    0.000259   0.001111  -0.000024  -0.000079   0.002021   0.000000
     8  H    0.001111   0.000260   0.002025  -0.000079  -0.000024   0.000000
     9  H    0.002745  -0.001776   0.000001   0.000000   0.000007  -0.000079
    10  H   -0.001778   0.002745   0.000007   0.000000   0.000001  -0.000079
    11  H   -0.000003   0.000012   0.002351  -0.001765  -0.001763   0.000000
    12  H    0.000012  -0.000003  -0.001757  -0.001768   0.002351   0.000000
    13  H    0.411816  -0.017913  -0.000001   0.000000   0.000000  -0.001765
    14  H   -0.017913   0.411816   0.000000   0.000000  -0.000001  -0.001768
    15  H   -0.000001   0.000000   0.253122  -0.008669  -0.009495   0.000000
    16  H    0.000000   0.000000  -0.008669   0.239687  -0.008664   0.000000
    17  H    0.000000  -0.000001  -0.009495  -0.008664   0.253106   0.000000
    18  H   -0.001765  -0.001768   0.000000   0.000000   0.000000   0.239687
    19  H    0.002351  -0.001758   0.000000   0.000000   0.000000  -0.008668
    20  H   -0.001762   0.002351   0.000000   0.000000   0.000000  -0.008665
             19         20
     1  N    0.000000   0.000000
     2  N    0.303769   0.303771
     3  C   -0.000049  -0.000049
     4  C   -0.001295  -0.001292
     5  C   -0.000001  -0.000001
     6  C   -0.014560  -0.014559
     7  H    0.000007   0.000001
     8  H    0.000001   0.000007
     9  H    0.002025  -0.000024
    10  H   -0.000024   0.002020
    11  H   -0.000001   0.000000
    12  H    0.000000  -0.000001
    13  H    0.002351  -0.001762
    14  H   -0.001758   0.002351
    15  H    0.000000   0.000000
    16  H    0.000000   0.000000
    17  H    0.000000   0.000000
    18  H   -0.008668  -0.008665
    19  H    0.253119  -0.009495
    20  H   -0.009495   0.253108
 Mulliken atomic charges:
              1
     1  N   -0.855683
     2  N   -0.855683
     3  C   -0.367356
     4  C   -0.367355
     5  C   -0.211127
     6  C   -0.211127
     7  H    0.225327
     8  H    0.225329
     9  H    0.225324
    10  H    0.225333
    11  H    0.273171
    12  H    0.273183
    13  H    0.273180
    14  H    0.273174
    15  H    0.474578
    16  H    0.487986
    17  H    0.474591
    18  H    0.487986
    19  H    0.474578
    20  H    0.474590
 Sum of Mulliken atomic charges =   2.00000
 Mulliken charges with hydrogens summed into heavy atoms:
              1
     1  N    0.581472
     2  N    0.581472
     3  C    0.083301
     4  C    0.083301
     5  C    0.335227
     6  C    0.335227
 Sum of Mulliken charges with hydrogens summed into heavy atoms =   2.00000
 DipInt: DoE/N= T F RetVal/Mat= T F Init=T NMatP=  1 IDeriv=0 Min/MaxMlt=  0  4
 Entering OneElI...
 OneElI was handed    33516395 working-precision words.
 Multipole integrals L=0 to 4 MinM= 0 MaxM= 0.
 Requested accuracy = 0.1000D-12
 PrsmSu:  NPrtUS=   1 ThrOK=F IAlg=1
 PRISM was handed    33410693 working-precision words and  1309 shell-pairs
 IPart=  0 NShTot=        1309 NBatch=          37 AvBLen=        35.4
 Electronic moments (au):
        -50.00000000          0.00000044         -0.00000361          0.00048019
       -945.72187906        -90.56488999        -54.72755937          3.01832234
         -0.00053803         -0.00017337         -0.00106414         -0.00015871
          0.00812893          0.00024186          0.00124299         -0.15984548
          0.00002552         -0.00003851          0.01490936         -0.06874187
     -32188.97375135       -485.47703063       -237.65430287       -790.62446909
          0.14087024        117.87141642         -0.01302658          0.06040386
          0.00213331      -1333.66460053       -906.66773573       -172.64880410
          0.09045079         -0.05866629          4.18554351
 Electronic spatial extent (au):  <R**2>=           1091.0143
 DipInt: DoE/N= F T RetVal/Mat= T F Init=T NMatP=  1 IDeriv=0 Min/MaxMlt=  0  4
 Nuclear    moments (au):
         52.00000000          0.00000000          0.00000000          0.00000000
        987.87079096         67.87170570         31.50850801          0.00000000
          0.00000000          0.00000000          0.00117204          0.00011190
          0.00282760         -0.00024553         -0.00140960          0.18353486
         -0.00002646          0.00004277         -0.01763957          0.07158376
      32362.70997524        200.96072301         83.11783040        892.37323258
         -0.11580592        -90.76242960          0.02653585         -0.12931644
         -0.01071979        942.60120752        519.19004705        118.84827516
         -0.14111162          0.09906470         27.32299593
 Total      moments (au):
          2.00000000          0.00000044         -0.00000361          0.00048019
         42.14891190        -22.69318429        -23.21905136          3.01832234
         -0.00053803         -0.00017337          0.00010790         -0.00004681
          0.01095654         -0.00000367         -0.00016661          0.02368938
         -0.00000095          0.00000426         -0.00273020          0.00284189
        173.73622388       -284.51630761       -154.53647247        101.74876349
          0.02506431         27.10898682          0.01350928         -0.06891258
         -0.00858648       -391.06339301       -387.47768867        -53.80052894
         -0.05066083          0.04039841         31.50853943
 Traceless Quadrup. (au):
         43.40335315        -21.43874304        -21.96461011          3.01832234
         -0.00053803         -0.00017337
 Charge=              2.0000 electrons
 Dipole moment (field-independent basis, Debye):
    X=              0.0000    Y=              0.0000    Z=              0.0012  Tot=              0.0012
 Quadrupole moment (field-independent basis, Debye-Ang):
   XX=             56.6917   YY=            -30.5231   ZZ=            -31.2304
   XY=              4.0597   XZ=             -0.0007   YZ=             -0.0002
 Traceless Quadrupole moment (field-independent basis, Debye-Ang):
   XX=             58.3790   YY=            -28.8358   ZZ=            -29.5432
   XY=              4.0597   XZ=             -0.0007   YZ=             -0.0002
 Octapole moment (field-independent basis, Debye-Ang**2):
  XXX=              0.0001  YYY=              0.0000  ZZZ=              0.0078  XYY=              0.0000
  XXY=             -0.0001  XXZ=              0.0169  XZZ=              0.0000  YZZ=              0.0000
  YYZ=             -0.0019  XYZ=              0.0020
 Hexadecapole moment (field-independent basis, Debye-Ang**3):
 XXXX=             65.4374 YYYY=           -107.1625 ZZZZ=            -58.2058 XXXY=             38.3235
 XXXZ=              0.0094 YYYX=             10.2105 YYYZ=              0.0051 ZZZX=             -0.0260
 ZZZY=             -0.0032 XXYY=           -147.2932 XXZZ=           -145.9427 YYZZ=            -20.2639
 XXYZ=             -0.0191 YYXZ=              0.0152 ZZXY=             11.8676
 N-N= 2.648464337958D+02 E-N=-1.135658072962D+03  KE= 2.676885641576D+02
 Entering OneElI...
 OneElI was handed    33487929 working-precision words.
 Calculate electrostatic properties
    NBasis =   118  MinDer = 0  MaxDer = 0
    NGrid  =    20  NMatD  =   1
 Requested accuracy = 0.1000D-12
 PrsmSu:  NPrtUS=   4 ThrOK=T IAlg=1
 PRISM was handed     8317954 working-precision words and  1231 shell-pairs
 PRISM was handed     8317954 working-precision words and  1231 shell-pairs
 PRISM was handed     8317954 working-precision words and  1231 shell-pairs
 PRISM was handed     8317954 working-precision words and  1231 shell-pairs
 IPart=  0 NShTot=        6400 NBatch=         320 AvBLen=        20.0
 IPart=  2 NShTot=        5960 NBatch=         298 AvBLen=        20.0
 IPart=  1 NShTot=        6360 NBatch=         318 AvBLen=        20.0
 IPart=  3 NShTot=        5900 NBatch=         295 AvBLen=        20.0
 --------------------------------------------------------
       Center         ----      EFG at Nuclei      ----
                      3XX-RR        3YY-RR        3ZZ-RR
 --------------------------------------------------------
     1   Atom       -0.000296     -0.001318      0.001614
     2   Atom       -0.000297     -0.001318      0.001614
     3   Atom       -0.092829     -0.008844      0.101674
     4   Atom       -0.092830     -0.008844      0.101674
     5   Atom       -0.320104      0.031417      0.288687
     6   Atom       -0.320106      0.031419      0.288687
     7   Atom        0.134755      0.002481     -0.137236
     8   Atom        0.134760      0.002386     -0.137146
     9   Atom        0.134756      0.002576     -0.137332
    10   Atom        0.134760      0.002290     -0.137050
    11   Atom        0.133967      0.008147     -0.142115
    12   Atom        0.133959      0.008636     -0.142595
    13   Atom        0.133964      0.008619     -0.142583
    14   Atom        0.133962      0.008165     -0.142127
    15   Atom        0.178277     -0.002806     -0.175471
    16   Atom       -0.146105     -0.037922      0.184027
    17   Atom        0.178232     -0.001351     -0.176881
    18   Atom       -0.146103     -0.037925      0.184028
    19   Atom        0.178283     -0.002121     -0.176162
    20   Atom        0.178226     -0.002035     -0.176191
 --------------------------------------------------------
                        XY            XZ            YZ
 --------------------------------------------------------
     1   Atom       -0.016211      0.000013     -0.000017
     2   Atom       -0.016211     -0.000014     -0.000022
     3   Atom        0.036102     -0.000027      0.000018
     4   Atom        0.036102      0.000024     -0.000052
     5   Atom       -0.327207      0.000264      0.000179
     6   Atom       -0.327206     -0.000205     -0.000154
     7   Atom       -0.009429      0.017811      0.216090
     8   Atom       -0.009374     -0.017725     -0.216119
     9   Atom       -0.009408     -0.017789     -0.216060
    10   Atom       -0.009395      0.017748      0.216149
    11   Atom       -0.005337      0.009941     -0.215403
    12   Atom       -0.005292     -0.010003      0.215236
    13   Atom       -0.005308      0.009986     -0.215238
    14   Atom       -0.005321     -0.009957      0.215401
    15   Atom       -0.028998     -0.037706     -0.260733
    16   Atom        0.266654     -0.000481      0.000399
    17   Atom       -0.029061      0.038018      0.260227
    18   Atom        0.266655     -0.000147      0.000120
    19   Atom       -0.028934     -0.037726     -0.260509
    20   Atom       -0.029126      0.037999      0.260453
 --------------------------------------------------------


 ---------------------------------------------------------------------------------
              Nuclear Quadrupole in Principal Axis System
 ---------------------------------------------------------------------------------

       Atom             a.u.   MegaHertz   Gauss  10(-4) cm-1        Axes

              Baa    -0.0170    -0.657    -0.234    -0.219  0.6959  0.7182  0.0001
     1 N(14)  Bbb     0.0016     0.062     0.022     0.021 -0.0012  0.0010  1.0000
              Bcc     0.0154     0.594     0.212     0.198  0.7182 -0.6959  0.0015
 
              Baa    -0.0170    -0.657    -0.234    -0.219  0.6959  0.7181  0.0014
     2 N(14)  Bbb     0.0016     0.062     0.022     0.021 -0.0012 -0.0007  1.0000
              Bcc     0.0154     0.594     0.212     0.198  0.7181 -0.6959  0.0004
 
              Baa    -0.1062   -14.253    -5.086    -4.754  0.9376 -0.3476  0.0002
     3 C(13)  Bbb     0.0045     0.609     0.217     0.203  0.3476  0.9376 -0.0001
              Bcc     0.1017    13.644     4.868     4.551 -0.0001  0.0001  1.0000
 
              Baa    -0.1062   -14.253    -5.086    -4.754  0.9376 -0.3476 -0.0002
     4 C(13)  Bbb     0.0045     0.609     0.217     0.203  0.3476  0.9376  0.0004
              Bcc     0.1017    13.644     4.868     4.551  0.0000 -0.0005  1.0000
 
              Baa    -0.5158   -69.211   -24.696   -23.086  0.8583  0.5132 -0.0004
     5 C(13)  Bbb     0.2271    30.472    10.873    10.164 -0.5132  0.8583 -0.0003
              Bcc     0.2887    38.739    13.823    12.922  0.0002  0.0005  1.0000
 
              Baa    -0.5158   -69.211   -24.696   -23.086  0.8583  0.5132  0.0003
     6 C(13)  Bbb     0.2271    30.472    10.873    10.164 -0.5132  0.8583  0.0004
              Bcc     0.2887    38.739    13.823    12.922  0.0000 -0.0005  1.0000
 
              Baa    -0.2954  -157.614   -56.240   -52.574 -0.0463 -0.5875  0.8079
     7 H(1)   Bbb     0.1353    72.215    25.768    24.088  0.9922 -0.1211 -0.0312
              Bcc     0.1601    85.399    30.472    28.486  0.1161  0.8001  0.5885
 
              Baa    -0.2954  -157.610   -56.239   -52.573  0.0461  0.5877  0.8078
     8 H(1)   Bbb     0.1353    72.212    25.767    24.087  0.9922 -0.1209  0.0313
              Bcc     0.1601    85.397    30.472    28.486  0.1161  0.8000 -0.5887
 
              Baa    -0.2954  -157.613   -56.240   -52.574  0.0463  0.5873  0.8080
     9 H(1)   Bbb     0.1353    72.214    25.768    24.088  0.9922 -0.1210  0.0312
              Bcc     0.1601    85.399    30.473    28.486  0.1161  0.8002 -0.5883
 
              Baa    -0.2954  -157.611   -56.239   -52.573 -0.0462 -0.5879  0.8076
    10 H(1)   Bbb     0.1353    72.213    25.768    24.088  0.9922 -0.1210 -0.0313
              Bcc     0.1601    85.397    30.472    28.485  0.1161  0.7999  0.5888
 
              Baa    -0.2952  -157.490   -56.196   -52.533 -0.0117  0.5788  0.8154
    11 H(1)   Bbb     0.1307    69.721    24.878    23.256  0.9491  0.2631 -0.1732
              Bcc     0.1645    87.768    31.318    29.276 -0.3148  0.7718 -0.5524
 
              Baa    -0.2952  -157.490   -56.196   -52.533  0.0119 -0.5779  0.8160
    12 H(1)   Bbb     0.1307    69.721    24.878    23.256  0.9492  0.2632  0.1726
              Bcc     0.1645    87.769    31.318    29.277 -0.3145  0.7725  0.5517
 
              Baa    -0.2952  -157.490   -56.196   -52.533 -0.0118  0.5779  0.8160
    13 H(1)   Bbb     0.1307    69.721    24.878    23.257  0.9491  0.2633 -0.1727
              Bcc     0.1645    87.768    31.318    29.276 -0.3147  0.7724 -0.5516
 
              Baa    -0.2952  -157.490   -56.196   -52.533  0.0117 -0.5788  0.8154
    14 H(1)   Bbb     0.1307    69.721    24.878    23.256  0.9491  0.2630  0.1730
              Bcc     0.1645    87.770    31.318    29.277 -0.3146  0.7719  0.5525
 
              Baa    -0.3679  -196.311   -70.049   -65.482  0.0867  0.5835  0.8075
    15 H(1)   Bbb     0.1819    97.032    34.624    32.367  0.9282  0.2470 -0.2782
              Bcc     0.1861    99.278    35.425    33.116 -0.3618  0.7736 -0.5202
 
              Baa    -0.3641  -194.266   -69.319   -64.800  0.7742 -0.6329  0.0011
    16 H(1)   Bbb     0.1801    96.078    34.283    32.048  0.6329  0.7742 -0.0011
              Bcc     0.1840    98.189    35.036    32.752 -0.0002  0.0016  1.0000
 
              Baa    -0.3679  -196.312   -70.049   -65.483 -0.0872 -0.5812  0.8090
    17 H(1)   Bbb     0.1819    97.034    34.624    32.367  0.9279  0.2482  0.2784
              Bcc     0.1861    99.278    35.425    33.115 -0.3626  0.7750  0.5177
 
              Baa    -0.3641  -194.266   -69.319   -64.800  0.7742 -0.6329  0.0003
    18 H(1)   Bbb     0.1801    96.078    34.283    32.048  0.6329  0.7742  0.0001
              Bcc     0.1840    98.189    35.036    32.752 -0.0003  0.0002  1.0000
 
              Baa    -0.3679  -196.312   -70.049   -65.483  0.0867  0.5824  0.8082
    19 H(1)   Bbb     0.1819    97.033    34.624    32.367  0.9283  0.2473 -0.2778
              Bcc     0.1861    99.279    35.425    33.116 -0.3617  0.7743 -0.5192
 
              Baa    -0.3679  -196.310   -70.048   -65.482 -0.0873 -0.5823  0.8083
    20 H(1)   Bbb     0.1819    97.033    34.624    32.367  0.9278  0.2478  0.2787
              Bcc     0.1861    99.277    35.424    33.115 -0.3626  0.7743  0.5186
 

 ---------------------------------------------------------------------------------

 No NMR shielding tensors so no spin-rotation constants.
 Leave Link  601 at Thu Mar 16 16:54:58 2023, MaxMem=   33554432 cpu:       0.6
 (Enter /share/apps/g09/l602.exe)
 Merz-Kollman atomic radii used.
 Atom Element Radius
    1     7    1.50
    2     7    1.50
    3     6    1.50
    4     6    1.50
    5     6    1.50
    6     6    1.50
    7     1    1.20
    8     1    1.20
    9     1    1.20
   10     1    1.20
   11     1    1.20
   12     1    1.20
   13     1    1.20
   14     1    1.20
   15     1    1.20
   16     1    1.20
   17     1    1.20
   18     1    1.20
   19     1    1.20
   20     1    1.20
 Generate VDW surfaces: Layer= 4 Dens= 1 Start= 1.400 Inc= 0.200

 **********************************************************************

            Electrostatic Properties Using The SCF Density

 **********************************************************************

       Atomic Center    1 is at  -3.163117 -0.196222  0.000246
       Atomic Center    2 is at   3.163118  0.196219  0.000185
       Atomic Center    3 is at  -0.663294 -0.390915 -0.000017
       Atomic Center    4 is at   0.663294  0.390918  0.000126
       Atomic Center    5 is at  -1.857279  0.564189 -0.000362
       Atomic Center    6 is at   1.857277 -0.564189 -0.000276
       Atomic Center    7 is at  -0.708602 -1.032164  0.876325
       Atomic Center    8 is at  -0.708355 -1.032353 -0.876235
       Atomic Center    9 is at   0.708526  1.031972  0.876614
       Atomic Center   10 is at   0.708433  1.032551 -0.875946
       Atomic Center   11 is at  -1.876375  1.193115  0.878824
       Atomic Center   12 is at  -1.876595  1.192116 -0.880254
       Atomic Center   13 is at   1.876534 -1.192145 -0.880150
       Atomic Center   14 is at   1.876429 -1.193085  0.878928
       Atomic Center   15 is at  -3.261630 -0.788058 -0.814043
       Atomic Center   16 is at  -3.951706  0.438738 -0.000903
       Atomic Center   17 is at  -3.262160 -0.785769  0.816126
       Atomic Center   18 is at   3.951705 -0.438744  0.000536
       Atomic Center   19 is at   3.261589  0.786983  0.815255
       Atomic Center   20 is at   3.262207  0.786839 -0.814916
      ESP Fit Center   21 is at  -3.688117  0.713105  1.818899
      ESP Fit Center   22 is at  -5.202095 -0.698785  0.000246
      ESP Fit Center   23 is at  -4.734989 -1.588779  0.000246
      ESP Fit Center   24 is at  -3.907787 -2.159756  0.000246
      ESP Fit Center   25 is at  -2.909990 -2.280910  0.000246
      ESP Fit Center   26 is at  -3.688117  0.713105 -1.818408
      ESP Fit Center   27 is at   3.688118 -0.713108  1.818838
      ESP Fit Center   28 is at   5.022576  1.172138  0.000185
      ESP Fit Center   29 is at   4.356054  1.924485  0.000185
      ESP Fit Center   30 is at   3.416245  2.280908  0.000185
      ESP Fit Center   31 is at   2.418448  2.159753  0.000185
      ESP Fit Center   32 is at   3.688118 -0.713108 -1.818468
      ESP Fit Center   33 is at  -1.407964 -2.354449 -0.000017
      ESP Fit Center   34 is at  -0.410167 -2.475603 -0.000017
      ESP Fit Center   35 is at   1.856230  2.119184  0.000126
      ESP Fit Center   36 is at   0.916421  2.475606  0.000126
      ESP Fit Center   37 is at  -0.081376  2.354452  0.000126
      ESP Fit Center   38 is at  -0.664343  2.292455 -0.000362
      ESP Fit Center   39 is at  -1.604152  2.648878 -0.000362
      ESP Fit Center   40 is at  -2.601949  2.527723 -0.000362
      ESP Fit Center   41 is at   1.112607 -2.527723 -0.000276
      ESP Fit Center   42 is at   2.110404 -2.648877 -0.000276
      ESP Fit Center   43 is at   3.050213 -2.292455 -0.000276
      ESP Fit Center   44 is at  -0.708602 -1.032164  2.556325
      ESP Fit Center   45 is at   0.278878 -1.032164  2.235473
      ESP Fit Center   46 is at  -0.403454 -0.093015  2.235473
      ESP Fit Center   47 is at  -1.507489 -0.451738  2.235473
      ESP Fit Center   48 is at  -1.507489 -1.612590  2.235473
      ESP Fit Center   49 is at  -0.403454 -1.971312  2.235473
      ESP Fit Center   50 is at  -1.507489 -2.415878  1.395473
      ESP Fit Center   51 is at  -0.431151 -2.605665  1.395473
      ESP Fit Center   52 is at   0.515365 -2.059194  1.395473
      ESP Fit Center   53 is at  -1.507489 -2.415878  0.357176
      ESP Fit Center   54 is at  -0.431151 -2.605665  0.357176
      ESP Fit Center   55 is at  -1.507242 -2.416067 -0.357087
      ESP Fit Center   56 is at  -0.430904 -2.605855 -0.357087
      ESP Fit Center   57 is at  -1.507242 -2.416067 -1.395384
      ESP Fit Center   58 is at  -0.430904 -2.605855 -1.395384
      ESP Fit Center   59 is at   0.515612 -2.059383 -1.395384
      ESP Fit Center   60 is at   0.279124 -1.032353 -2.235384
      ESP Fit Center   61 is at  -0.403207 -0.093205 -2.235384
      ESP Fit Center   62 is at  -1.507242 -0.451928 -2.235384
      ESP Fit Center   63 is at  -1.507242 -1.612779 -2.235384
      ESP Fit Center   64 is at  -0.403207 -1.971502 -2.235384
      ESP Fit Center   65 is at  -0.708355 -1.032353 -2.556235
      ESP Fit Center   66 is at   0.708526  1.031972  2.556614
      ESP Fit Center   67 is at   1.696005  1.031972  2.235762
      ESP Fit Center   68 is at   1.013674  1.971121  2.235762
      ESP Fit Center   69 is at  -0.090361  1.612398  2.235762
      ESP Fit Center   70 is at  -0.090361  0.451546  2.235762
      ESP Fit Center   71 is at   1.013674  0.092824  2.235762
      ESP Fit Center   72 is at   1.932493  2.059002  1.395762
      ESP Fit Center   73 is at   0.985977  2.605473  1.395762
      ESP Fit Center   74 is at  -0.090361  2.415686  1.395762
      ESP Fit Center   75 is at   1.932493  2.059002  0.357465
      ESP Fit Center   76 is at   0.985977  2.605473  0.357465
      ESP Fit Center   77 is at  -0.090361  2.415686  0.357465
      ESP Fit Center   78 is at   1.932399  2.059581 -0.356797
      ESP Fit Center   79 is at   0.985884  2.606052 -0.356797
      ESP Fit Center   80 is at  -0.090455  2.416265 -0.356797
      ESP Fit Center   81 is at   1.932399  2.059581 -1.395094
      ESP Fit Center   82 is at   0.985884  2.606052 -1.395094
      ESP Fit Center   83 is at  -0.090455  2.416265 -1.395094
      ESP Fit Center   84 is at   1.695912  1.032551 -2.235094
      ESP Fit Center   85 is at   1.013581  1.971700 -2.235094
      ESP Fit Center   86 is at  -0.090455  1.612977 -2.235094
      ESP Fit Center   87 is at  -0.090455  0.452126 -2.235094
      ESP Fit Center   88 is at   1.013581  0.093403 -2.235094
      ESP Fit Center   89 is at   0.708433  1.032551 -2.555946
      ESP Fit Center   90 is at  -1.876375  1.193115  2.558824
      ESP Fit Center   91 is at  -0.888896  1.193115  2.237973
      ESP Fit Center   92 is at  -1.571227  2.132263  2.237973
      ESP Fit Center   93 is at  -2.675263  1.773540  2.237973
      ESP Fit Center   94 is at  -2.675263  0.612689  2.237973
      ESP Fit Center   95 is at  -1.571227  0.253966  2.237973
      ESP Fit Center   96 is at  -0.652409  2.220144  1.397973
      ESP Fit Center   97 is at  -1.598924  2.766616  1.397973
      ESP Fit Center   98 is at  -2.675263  2.576828  1.397973
      ESP Fit Center   99 is at  -3.377793  1.739586  1.397973
      ESP Fit Center  100 is at  -1.598924  2.766616  0.359675
      ESP Fit Center  101 is at  -2.675263  2.576828  0.359675
      ESP Fit Center  102 is at  -1.599144  2.765617 -0.361105
      ESP Fit Center  103 is at  -2.675482  2.575830 -0.361105
      ESP Fit Center  104 is at  -0.652628  2.219146 -1.399402
      ESP Fit Center  105 is at  -1.599144  2.765617 -1.399402
      ESP Fit Center  106 is at  -2.675482  2.575830 -1.399402
      ESP Fit Center  107 is at  -3.378012  1.738587 -1.399402
      ESP Fit Center  108 is at  -0.889115  1.192116 -2.239402
      ESP Fit Center  109 is at  -1.571447  2.131265 -2.239402
      ESP Fit Center  110 is at  -2.675482  1.772542 -2.239402
      ESP Fit Center  111 is at  -2.675482  0.611690 -2.239402
      ESP Fit Center  112 is at  -1.571447  0.252968 -2.239402
      ESP Fit Center  113 is at  -1.876595  1.192116 -2.560254
      ESP Fit Center  114 is at   1.077646 -2.575859 -0.361001
      ESP Fit Center  115 is at   2.153985 -2.765646 -0.361001
      ESP Fit Center  116 is at   3.100500 -2.219175 -0.361001
      ESP Fit Center  117 is at   1.077646 -2.575859 -1.399298
      ESP Fit Center  118 is at   2.153985 -2.765646 -1.399298
      ESP Fit Center  119 is at   3.100500 -2.219175 -1.399298
      ESP Fit Center  120 is at   2.864013 -1.192145 -2.239298
      ESP Fit Center  121 is at   2.181682 -0.252996 -2.239298
      ESP Fit Center  122 is at   1.077646 -0.611719 -2.239298
      ESP Fit Center  123 is at   1.077646 -1.772571 -2.239298
      ESP Fit Center  124 is at   2.181682 -2.131294 -2.239298
      ESP Fit Center  125 is at   1.876534 -1.192145 -2.560150
      ESP Fit Center  126 is at   1.876429 -1.193085  2.558928
      ESP Fit Center  127 is at   2.863908 -1.193085  2.238076
      ESP Fit Center  128 is at   2.181577 -0.253936  2.238076
      ESP Fit Center  129 is at   1.077542 -0.612659  2.238076
      ESP Fit Center  130 is at   1.077542 -1.773510  2.238076
      ESP Fit Center  131 is at   2.181577 -2.132233  2.238076
      ESP Fit Center  132 is at   1.077542 -2.576798  1.398076
      ESP Fit Center  133 is at   2.153880 -2.766586  1.398076
      ESP Fit Center  134 is at   3.100396 -2.220115  1.398076
      ESP Fit Center  135 is at   1.077542 -2.576798  0.359779
      ESP Fit Center  136 is at   2.153880 -2.766586  0.359779
      ESP Fit Center  137 is at   3.100396 -2.220115  0.359779
      ESP Fit Center  138 is at  -4.060518 -2.171772 -0.294894
      ESP Fit Center  139 is at  -2.984179 -2.361559 -0.294894
      ESP Fit Center  140 is at  -4.763047 -1.334529 -1.333191
      ESP Fit Center  141 is at  -4.060518 -2.171772 -1.333191
      ESP Fit Center  142 is at  -2.984179 -2.361559 -1.333191
      ESP Fit Center  143 is at  -2.274151 -0.788058 -2.173191
      ESP Fit Center  144 is at  -2.956482  0.151091 -2.173191
      ESP Fit Center  145 is at  -4.060518 -0.207632 -2.173191
      ESP Fit Center  146 is at  -4.060518 -1.368484 -2.173191
      ESP Fit Center  147 is at  -2.956482 -1.727207 -2.173191
      ESP Fit Center  148 is at  -3.261630 -0.788058 -2.494043
      ESP Fit Center  149 is at  -3.646558  1.377887  1.358246
      ESP Fit Center  150 is at  -4.750593  1.019164  1.358246
      ESP Fit Center  151 is at  -3.674255  2.012239  0.518246
      ESP Fit Center  152 is at  -4.750593  1.822452  0.518246
      ESP Fit Center  153 is at  -5.453123  0.985209  0.518246
      ESP Fit Center  154 is at  -5.453123 -0.107733  0.518246
      ESP Fit Center  155 is at  -3.674255  2.012239 -0.520052
      ESP Fit Center  156 is at  -4.750593  1.822452 -0.520052
      ESP Fit Center  157 is at  -5.453123  0.985209 -0.520052
      ESP Fit Center  158 is at  -5.453123 -0.107733 -0.520052
      ESP Fit Center  159 is at  -3.646558  1.377887 -1.360052
      ESP Fit Center  160 is at  -4.750593  1.019164 -1.360052
      ESP Fit Center  161 is at  -3.262160 -0.785769  2.496126
      ESP Fit Center  162 is at  -2.274681 -0.785769  2.175275
      ESP Fit Center  163 is at  -2.957012  0.153379  2.175275
      ESP Fit Center  164 is at  -4.061047 -0.205344  2.175275
      ESP Fit Center  165 is at  -4.061047 -1.366195  2.175275
      ESP Fit Center  166 is at  -2.957012 -1.724918  2.175275
      ESP Fit Center  167 is at  -4.763577 -1.332241  1.335275
      ESP Fit Center  168 is at  -4.061047 -2.169483  1.335275
      ESP Fit Center  169 is at  -2.984709 -2.359271  1.335275
      ESP Fit Center  170 is at  -4.061047 -2.169483  0.296978
      ESP Fit Center  171 is at  -2.984709 -2.359271  0.296978
      ESP Fit Center  172 is at   4.939184 -0.438744  1.359685
      ESP Fit Center  173 is at   4.256853 -1.377893  1.359685
      ESP Fit Center  174 is at   5.549480 -0.438744  0.519685
      ESP Fit Center  175 is at   5.175671  0.588286  0.519685
      ESP Fit Center  176 is at   4.229155 -2.012245  0.519685
      ESP Fit Center  177 is at   5.175671 -1.465774  0.519685
      ESP Fit Center  178 is at   5.549480 -0.438744 -0.518613
      ESP Fit Center  179 is at   5.175671  0.588286 -0.518613
      ESP Fit Center  180 is at   4.229155 -2.012245 -0.518613
      ESP Fit Center  181 is at   5.175671 -1.465774 -0.518613
      ESP Fit Center  182 is at   4.939184 -0.438744 -1.358613
      ESP Fit Center  183 is at   4.256853 -1.377893 -1.358613
      ESP Fit Center  184 is at   3.261589  0.786983  2.495255
      ESP Fit Center  185 is at   4.249068  0.786983  2.174403
      ESP Fit Center  186 is at   3.566736  1.726132  2.174403
      ESP Fit Center  187 is at   2.462701  1.367409  2.174403
      ESP Fit Center  188 is at   2.462701  0.206558  2.174403
      ESP Fit Center  189 is at   3.566736 -0.152165  2.174403
      ESP Fit Center  190 is at   4.859363  0.786983  1.334403
      ESP Fit Center  191 is at   4.485555  1.814013  1.334403
      ESP Fit Center  192 is at   3.539039  2.360484  1.334403
      ESP Fit Center  193 is at   2.462701  2.170697  1.334403
      ESP Fit Center  194 is at   4.485555  1.814013  0.296106
      ESP Fit Center  195 is at   3.539039  2.360484  0.296106
      ESP Fit Center  196 is at   2.462701  2.170697  0.296106
      ESP Fit Center  197 is at   4.486174  1.813869 -0.295767
      ESP Fit Center  198 is at   3.539658  2.360340 -0.295767
      ESP Fit Center  199 is at   2.463319  2.170553 -0.295767
      ESP Fit Center  200 is at   4.859982  0.786839 -1.334064
      ESP Fit Center  201 is at   4.486174  1.813869 -1.334064
      ESP Fit Center  202 is at   3.539658  2.360340 -1.334064
      ESP Fit Center  203 is at   2.463319  2.170553 -1.334064
      ESP Fit Center  204 is at   4.249686  0.786839 -2.174064
      ESP Fit Center  205 is at   3.567355  1.725988 -2.174064
      ESP Fit Center  206 is at   2.463319  1.367265 -2.174064
      ESP Fit Center  207 is at   2.463319  0.206414 -2.174064
      ESP Fit Center  208 is at   3.567355 -0.152309 -2.174064
      ESP Fit Center  209 is at   3.262207  0.786839 -2.494916
      ESP Fit Center  210 is at  -3.683777  0.705589  2.162571
      ESP Fit Center  211 is at  -5.271228 -1.211435  0.534296
      ESP Fit Center  212 is at  -5.271228 -1.211435 -0.533805
      ESP Fit Center  213 is at  -3.683777  0.705589 -2.162080
      ESP Fit Center  214 is at   3.683778 -0.705591  2.162510
      ESP Fit Center  215 is at   5.039513  0.196219  1.496560
      ESP Fit Center  216 is at   5.271229  1.211432  0.534235
      ESP Fit Center  217 is at   5.271229  1.211432 -0.533865
      ESP Fit Center  218 is at   5.039513  0.196219 -1.496191
      ESP Fit Center  219 is at   3.683778 -0.705591 -2.162140
      ESP Fit Center  220 is at  -0.708602 -1.032164  2.796325
      ESP Fit Center  221 is at   0.251398 -1.032164  2.539094
      ESP Fit Center  222 is at  -0.228602 -0.200779  2.539094
      ESP Fit Center  223 is at  -1.188602 -0.200779  2.539094
      ESP Fit Center  224 is at  -1.668602 -1.032164  2.539094
      ESP Fit Center  225 is at  -1.188602 -1.863548  2.539094
      ESP Fit Center  226 is at  -0.228602 -1.863548  2.539094
      ESP Fit Center  227 is at  -2.053810 -2.009515  1.836325
      ESP Fit Center  228 is at  -1.222426 -2.613551  1.836325
      ESP Fit Center  229 is at  -0.194778 -2.613551  1.836325
      ESP Fit Center  230 is at  -1.668602 -2.694933  0.876325
      ESP Fit Center  231 is at  -0.708602 -2.952164  0.876325
      ESP Fit Center  232 is at   0.251398 -2.694933  0.876325
      ESP Fit Center  233 is at  -1.668355 -2.695122 -0.876235
      ESP Fit Center  234 is at  -0.708355 -2.952353 -0.876235
      ESP Fit Center  235 is at   0.251645 -2.695122 -0.876235
      ESP Fit Center  236 is at  -2.053563 -2.009704 -1.836235
      ESP Fit Center  237 is at  -1.222179 -2.613741 -1.836235
      ESP Fit Center  238 is at  -0.194531 -2.613741 -1.836235
      ESP Fit Center  239 is at   0.251645 -1.032353 -2.539004
      ESP Fit Center  240 is at  -0.228355 -0.200969 -2.539004
      ESP Fit Center  241 is at  -1.188355 -0.200969 -2.539004
      ESP Fit Center  242 is at  -1.668355 -1.032353 -2.539004
      ESP Fit Center  243 is at  -1.188355 -1.863738 -2.539004
      ESP Fit Center  244 is at  -0.228355 -1.863738 -2.539004
      ESP Fit Center  245 is at  -0.708355 -1.032353 -2.796235
      ESP Fit Center  246 is at   0.708526  1.031972  2.796614
      ESP Fit Center  247 is at   1.668526  1.031972  2.539382
      ESP Fit Center  248 is at   1.188526  1.863357  2.539382
      ESP Fit Center  249 is at   0.228526  1.863357  2.539382
      ESP Fit Center  250 is at  -0.251474  1.031972  2.539382
      ESP Fit Center  251 is at   0.228526  0.200588  2.539382
      ESP Fit Center  252 is at   1.188526  0.200588  2.539382
      ESP Fit Center  253 is at   2.053734  2.009323  1.836614
      ESP Fit Center  254 is at   1.222350  2.613359  1.836614
      ESP Fit Center  255 is at   0.194702  2.613359  1.836614
      ESP Fit Center  256 is at   1.668526  2.694741  0.876614
      ESP Fit Center  257 is at   0.708526  2.951972  0.876614
      ESP Fit Center  258 is at  -0.251474  2.694741  0.876614
      ESP Fit Center  259 is at   1.668433  2.695320 -0.875946
      ESP Fit Center  260 is at   0.708433  2.952551 -0.875946
      ESP Fit Center  261 is at  -0.251567  2.695320 -0.875946
      ESP Fit Center  262 is at   2.053641  2.009902 -1.835946
      ESP Fit Center  263 is at   1.222257  2.613938 -1.835946
      ESP Fit Center  264 is at   0.194609  2.613938 -1.835946
      ESP Fit Center  265 is at   1.668433  1.032551 -2.538715
      ESP Fit Center  266 is at   1.188433  1.863936 -2.538715
      ESP Fit Center  267 is at   0.228433  1.863936 -2.538715
      ESP Fit Center  268 is at  -0.251567  1.032551 -2.538715
      ESP Fit Center  269 is at   0.228433  0.201167 -2.538715
      ESP Fit Center  270 is at   1.188433  0.201167 -2.538715
      ESP Fit Center  271 is at   0.708433  1.032551 -2.795946
      ESP Fit Center  272 is at  -1.876375  1.193115  2.798824
      ESP Fit Center  273 is at  -0.916375  1.193115  2.541593
      ESP Fit Center  274 is at  -1.396375  2.024499  2.541593
      ESP Fit Center  275 is at  -2.356375  2.024499  2.541593
      ESP Fit Center  276 is at  -2.836375  1.193115  2.541593
      ESP Fit Center  277 is at  -2.356375  0.361730  2.541593
      ESP Fit Center  278 is at  -1.396375  0.361730  2.541593
      ESP Fit Center  279 is at  -0.531167  2.170466  1.838824
      ESP Fit Center  280 is at  -1.362551  2.774502  1.838824
      ESP Fit Center  281 is at  -2.390199  2.774502  1.838824
      ESP Fit Center  282 is at  -3.221583  2.170466  1.838824
      ESP Fit Center  283 is at  -0.916375  2.855883  0.878824
      ESP Fit Center  284 is at  -1.876375  3.113115  0.878824
      ESP Fit Center  285 is at  -2.836375  2.855883  0.878824
      ESP Fit Center  286 is at  -3.539144  2.153115  0.878824
      ESP Fit Center  287 is at  -0.916595  2.854885 -0.880254
      ESP Fit Center  288 is at  -1.876595  3.112116 -0.880254
      ESP Fit Center  289 is at  -2.836595  2.854885 -0.880254
      ESP Fit Center  290 is at  -3.539363  2.152116 -0.880254
      ESP Fit Center  291 is at  -0.531386  2.169467 -1.840254
      ESP Fit Center  292 is at  -1.362771  2.773503 -1.840254
      ESP Fit Center  293 is at  -2.390418  2.773503 -1.840254
      ESP Fit Center  294 is at  -3.221803  2.169467 -1.840254
      ESP Fit Center  295 is at  -0.916595  1.192116 -2.543022
      ESP Fit Center  296 is at  -1.396595  2.023501 -2.543022
      ESP Fit Center  297 is at  -2.356595  2.023501 -2.543022
      ESP Fit Center  298 is at  -2.836595  1.192116 -2.543022
      ESP Fit Center  299 is at  -2.356595  0.360732 -2.543022
      ESP Fit Center  300 is at  -1.396595  0.360732 -2.543022
      ESP Fit Center  301 is at  -1.876595  1.192116 -2.800254
      ESP Fit Center  302 is at   0.916534 -2.854914 -0.880150
      ESP Fit Center  303 is at   1.876534 -3.112145 -0.880150
      ESP Fit Center  304 is at   2.836534 -2.854914 -0.880150
      ESP Fit Center  305 is at   3.539303 -2.152145 -0.880150
      ESP Fit Center  306 is at   0.531326 -2.169496 -1.840150
      ESP Fit Center  307 is at   1.362710 -2.773532 -1.840150
      ESP Fit Center  308 is at   2.390358 -2.773532 -1.840150
      ESP Fit Center  309 is at   3.221742 -2.169496 -1.840150
      ESP Fit Center  310 is at   2.836534 -1.192145 -2.542919
      ESP Fit Center  311 is at   2.356534 -0.360761 -2.542919
      ESP Fit Center  312 is at   1.396534 -0.360761 -2.542919
      ESP Fit Center  313 is at   0.916534 -1.192145 -2.542919
      ESP Fit Center  314 is at   1.396534 -2.023529 -2.542919
      ESP Fit Center  315 is at   2.356534 -2.023529 -2.542919
      ESP Fit Center  316 is at   1.876534 -1.192145 -2.800150
      ESP Fit Center  317 is at   1.876429 -1.193085  2.798928
      ESP Fit Center  318 is at   2.836429 -1.193085  2.541697
      ESP Fit Center  319 is at   2.356429 -0.361700  2.541697
      ESP Fit Center  320 is at   1.396429 -0.361700  2.541697
      ESP Fit Center  321 is at   0.916429 -1.193085  2.541697
      ESP Fit Center  322 is at   1.396429 -2.024469  2.541697
      ESP Fit Center  323 is at   2.356429 -2.024469  2.541697
      ESP Fit Center  324 is at   0.531221 -2.170436  1.838928
      ESP Fit Center  325 is at   1.362605 -2.774472  1.838928
      ESP Fit Center  326 is at   2.390253 -2.774472  1.838928
      ESP Fit Center  327 is at   3.221637 -2.170436  1.838928
      ESP Fit Center  328 is at   0.916429 -2.855853  0.878928
      ESP Fit Center  329 is at   1.876429 -3.113085  0.878928
      ESP Fit Center  330 is at   2.836429 -2.855853  0.878928
      ESP Fit Center  331 is at   3.539198 -2.153085  0.878928
      ESP Fit Center  332 is at  -4.924399 -1.748058 -0.814043
      ESP Fit Center  333 is at  -4.221630 -2.450827 -0.814043
      ESP Fit Center  334 is at  -3.261630 -2.708058 -0.814043
      ESP Fit Center  335 is at  -2.301630 -2.450827 -0.814043
      ESP Fit Center  336 is at  -4.924399 -0.788058 -1.774043
      ESP Fit Center  337 is at  -4.606838 -1.765409 -1.774043
      ESP Fit Center  338 is at  -3.775454 -2.369445 -1.774043
      ESP Fit Center  339 is at  -2.747806 -2.369445 -1.774043
      ESP Fit Center  340 is at  -2.301630 -0.788058 -2.476812
      ESP Fit Center  341 is at  -2.781630  0.043326 -2.476812
      ESP Fit Center  342 is at  -3.741630  0.043326 -2.476812
      ESP Fit Center  343 is at  -4.221630 -0.788058 -2.476812
      ESP Fit Center  344 is at  -3.741630 -1.619442 -2.476812
      ESP Fit Center  345 is at  -2.781630 -1.619442 -2.476812
      ESP Fit Center  346 is at  -3.261630 -0.788058 -2.734043
      ESP Fit Center  347 is at  -4.431706  1.270123  1.661866
      ESP Fit Center  348 is at  -4.911706  0.438738  1.661866
      ESP Fit Center  349 is at  -4.465530  2.020125  0.959097
      ESP Fit Center  350 is at  -5.296914  1.416089  0.959097
      ESP Fit Center  351 is at  -5.614475  0.438738  0.959097
      ESP Fit Center  352 is at  -3.951706  2.358738 -0.000903
      ESP Fit Center  353 is at  -4.911706  2.101507 -0.000903
      ESP Fit Center  354 is at  -5.614475  1.398738 -0.000903
      ESP Fit Center  355 is at  -5.871706  0.438738 -0.000903
      ESP Fit Center  356 is at  -5.614475 -0.521262 -0.000903
      ESP Fit Center  357 is at  -4.465530  2.020125 -0.960903
      ESP Fit Center  358 is at  -5.296914  1.416089 -0.960903
      ESP Fit Center  359 is at  -5.614475  0.438738 -0.960903
      ESP Fit Center  360 is at  -4.431706  1.270123 -1.663672
      ESP Fit Center  361 is at  -4.911706  0.438738 -1.663672
      ESP Fit Center  362 is at  -3.262160 -0.785769  2.736126
      ESP Fit Center  363 is at  -2.302160 -0.785769  2.478895
      ESP Fit Center  364 is at  -2.782160  0.045615  2.478895
      ESP Fit Center  365 is at  -3.742160  0.045615  2.478895
      ESP Fit Center  366 is at  -4.222160 -0.785769  2.478895
      ESP Fit Center  367 is at  -3.742160 -1.617154  2.478895
      ESP Fit Center  368 is at  -2.782160 -1.617154  2.478895
      ESP Fit Center  369 is at  -4.924929 -0.785769  1.776126
      ESP Fit Center  370 is at  -4.607368 -1.763120  1.776126
      ESP Fit Center  371 is at  -3.775984 -2.367156  1.776126
      ESP Fit Center  372 is at  -2.748336 -2.367156  1.776126
      ESP Fit Center  373 is at  -4.924929 -1.745769  0.816126
      ESP Fit Center  374 is at  -4.222160 -2.448538  0.816126
      ESP Fit Center  375 is at  -3.262160 -2.705769  0.816126
      ESP Fit Center  376 is at  -2.302160 -2.448538  0.816126
      ESP Fit Center  377 is at   4.911705 -0.438744  1.663305
      ESP Fit Center  378 is at   4.431705 -1.270129  1.663305
      ESP Fit Center  379 is at   5.614474 -0.438744  0.960536
      ESP Fit Center  380 is at   4.465529 -2.020131  0.960536
      ESP Fit Center  381 is at   5.296913 -1.416095  0.960536
      ESP Fit Center  382 is at   5.871705 -0.438744  0.000536
      ESP Fit Center  383 is at   5.614474  0.521256  0.000536
      ESP Fit Center  384 is at   3.951705 -2.358744  0.000536
      ESP Fit Center  385 is at   4.911705 -2.101513  0.000536
      ESP Fit Center  386 is at   5.614474 -1.398744  0.000536
      ESP Fit Center  387 is at   5.614474 -0.438744 -0.959464
      ESP Fit Center  388 is at   4.465529 -2.020131 -0.959464
      ESP Fit Center  389 is at   5.296913 -1.416095 -0.959464
      ESP Fit Center  390 is at   4.911705 -0.438744 -1.662233
      ESP Fit Center  391 is at   4.431705 -1.270129 -1.662233
      ESP Fit Center  392 is at   3.261589  0.786983  2.735255
      ESP Fit Center  393 is at   4.221589  0.786983  2.478024
      ESP Fit Center  394 is at   3.741589  1.618368  2.478024
      ESP Fit Center  395 is at   2.781589  1.618368  2.478024
      ESP Fit Center  396 is at   2.301589  0.786983  2.478024
      ESP Fit Center  397 is at   2.781589 -0.044401  2.478024
      ESP Fit Center  398 is at   3.741589 -0.044401  2.478024
      ESP Fit Center  399 is at   4.924357  0.786983  1.775255
      ESP Fit Center  400 is at   4.606797  1.764334  1.775255
      ESP Fit Center  401 is at   3.775412  2.368370  1.775255
      ESP Fit Center  402 is at   2.747765  2.368370  1.775255
      ESP Fit Center  403 is at   4.924357  1.746983  0.815255
      ESP Fit Center  404 is at   4.221589  2.449752  0.815255
      ESP Fit Center  405 is at   3.261589  2.706983  0.815255
      ESP Fit Center  406 is at   2.301589  2.449752  0.815255
      ESP Fit Center  407 is at   4.924976  1.746839 -0.814916
      ESP Fit Center  408 is at   4.222207  2.449608 -0.814916
      ESP Fit Center  409 is at   3.262207  2.706839 -0.814916
      ESP Fit Center  410 is at   2.302207  2.449608 -0.814916
      ESP Fit Center  411 is at   4.924976  0.786839 -1.774916
      ESP Fit Center  412 is at   4.607415  1.764190 -1.774916
      ESP Fit Center  413 is at   3.776031  2.368226 -1.774916
      ESP Fit Center  414 is at   2.748383  2.368226 -1.774916
      ESP Fit Center  415 is at   4.222207  0.786839 -2.477685
      ESP Fit Center  416 is at   3.742207  1.618224 -2.477685
      ESP Fit Center  417 is at   2.782207  1.618224 -2.477685
      ESP Fit Center  418 is at   2.302207  0.786839 -2.477685
      ESP Fit Center  419 is at   2.782207 -0.044545 -2.477685
      ESP Fit Center  420 is at   3.742207 -0.044545 -2.477685
      ESP Fit Center  421 is at   3.262207  0.786839 -2.734916
      ESP Fit Center  422 is at  -3.679739  0.698595  2.494720
      ESP Fit Center  423 is at  -4.994970  0.341659  1.909434
      ESP Fit Center  424 is at  -5.410561 -1.278534  1.033491
      ESP Fit Center  425 is at  -5.657592 -1.229467  0.000246
      ESP Fit Center  426 is at  -5.072305 -2.105410  0.000246
      ESP Fit Center  427 is at  -4.196362 -2.690697  0.000246
      ESP Fit Center  428 is at  -3.163117 -2.896222  0.000246
      ESP Fit Center  429 is at  -2.129872 -2.690697  0.000246
      ESP Fit Center  430 is at  -5.410561 -1.278534 -1.033000
      ESP Fit Center  431 is at  -4.994970  0.341659 -1.908943
      ESP Fit Center  432 is at  -3.679739  0.698595 -2.494229
      ESP Fit Center  433 is at   3.679740 -0.698598  2.494660
      ESP Fit Center  434 is at   5.072306  0.196219  1.909373
      ESP Fit Center  435 is at   3.956223 -1.540440  1.909373
      ESP Fit Center  436 is at   5.410562  1.278531  1.033430
      ESP Fit Center  437 is at   5.657593  1.229464  0.000185
      ESP Fit Center  438 is at   5.072306  2.105407  0.000185
      ESP Fit Center  439 is at   4.196363  2.690694  0.000185
      ESP Fit Center  440 is at   3.163118  2.896219  0.000185
      ESP Fit Center  441 is at   2.129873  2.690694  0.000185
      ESP Fit Center  442 is at   5.410562  1.278531 -1.033060
      ESP Fit Center  443 is at   5.072306  0.196219 -1.909003
      ESP Fit Center  444 is at   3.956223 -1.540440 -1.909003
      ESP Fit Center  445 is at   3.679740 -0.698598 -2.494290
      ESP Fit Center  446 is at  -1.696539 -2.885389 -0.000017
      ESP Fit Center  447 is at  -0.663294 -3.090915 -0.000017
      ESP Fit Center  448 is at   0.369952 -2.885389 -0.000017
      ESP Fit Center  449 is at   1.696539  2.885392  0.000126
      ESP Fit Center  450 is at   0.663294  3.090918  0.000126
      ESP Fit Center  451 is at  -0.369951  2.885392  0.000126
      ESP Fit Center  452 is at  -0.824034  3.058664 -0.000362
      ESP Fit Center  453 is at  -1.857279  3.264189 -0.000362
      ESP Fit Center  454 is at  -2.890524  3.058664 -0.000362
      ESP Fit Center  455 is at   0.824032 -3.058663 -0.000276
      ESP Fit Center  456 is at   1.857277 -3.264189 -0.000276
      ESP Fit Center  457 is at   2.890523 -3.058663 -0.000276
      ESP Fit Center  458 is at  -0.708602 -1.032164  3.036325
      ESP Fit Center  459 is at   0.371398 -1.032164  2.746940
      ESP Fit Center  460 is at  -0.168602 -0.096856  2.746940
      ESP Fit Center  461 is at  -1.248602 -0.096856  2.746940
      ESP Fit Center  462 is at  -1.788602 -1.032164  2.746940
      ESP Fit Center  463 is at  -1.248602 -1.967471  2.746940
      ESP Fit Center  464 is at  -0.168602 -1.967471  2.746940
      ESP Fit Center  465 is at  -1.933594 -2.445880  1.956325
      ESP Fit Center  466 is at  -0.974818 -2.883739  1.956325
      ESP Fit Center  467 is at   0.068480 -2.733735  1.956325
      ESP Fit Center  468 is at  -1.474548 -3.051799  0.876325
      ESP Fit Center  469 is at  -0.448242 -3.176415  0.876325
      ESP Fit Center  470 is at  -1.474301 -3.051989 -0.876235
      ESP Fit Center  471 is at  -0.447996 -3.176605 -0.876235
      ESP Fit Center  472 is at  -1.933347 -2.446070 -1.956235
      ESP Fit Center  473 is at  -0.974571 -2.883928 -1.956235
      ESP Fit Center  474 is at   0.068727 -2.733925 -1.956235
      ESP Fit Center  475 is at   0.371645 -1.032353 -2.746850
      ESP Fit Center  476 is at  -0.168355 -0.097046 -2.746850
      ESP Fit Center  477 is at  -1.248355 -0.097046 -2.746850
      ESP Fit Center  478 is at  -1.788355 -1.032353 -2.746850
      ESP Fit Center  479 is at  -1.248355 -1.967661 -2.746850
      ESP Fit Center  480 is at  -0.168355 -1.967661 -2.746850
      ESP Fit Center  481 is at  -0.708355 -1.032353 -3.036235
      ESP Fit Center  482 is at   0.708526  1.031972  3.036614
      ESP Fit Center  483 is at   1.788526  1.031972  2.747229
      ESP Fit Center  484 is at   1.248526  1.967280  2.747229
      ESP Fit Center  485 is at   0.168526  1.967280  2.747229
      ESP Fit Center  486 is at  -0.371474  1.031972  2.747229
      ESP Fit Center  487 is at   0.168526  0.096665  2.747229
      ESP Fit Center  488 is at   1.248526  0.096665  2.747229
      ESP Fit Center  489 is at   1.485608  2.733543  1.956614
      ESP Fit Center  490 is at   0.442310  2.883547  1.956614
      ESP Fit Center  491 is at   1.935546  2.809617  0.876614
      ESP Fit Center  492 is at   0.968885  3.176223  0.876614
      ESP Fit Center  493 is at  -0.057420  3.051607  0.876614
      ESP Fit Center  494 is at   1.935453  2.810196 -0.875946
      ESP Fit Center  495 is at   0.968792  3.176802 -0.875946
      ESP Fit Center  496 is at  -0.057514  3.052186 -0.875946
      ESP Fit Center  497 is at   1.485514  2.734122 -1.955946
      ESP Fit Center  498 is at   0.442217  2.884126 -1.955946
      ESP Fit Center  499 is at   1.788433  1.032551 -2.746561
      ESP Fit Center  500 is at   1.248433  1.967859 -2.746561
      ESP Fit Center  501 is at   0.168433  1.967859 -2.746561
      ESP Fit Center  502 is at  -0.371567  1.032551 -2.746561
      ESP Fit Center  503 is at   0.168433  0.097244 -2.746561
      ESP Fit Center  504 is at   1.248433  0.097244 -2.746561
      ESP Fit Center  505 is at   0.708433  1.032551 -3.035946
      ESP Fit Center  506 is at  -1.876375  1.193115  3.038824
      ESP Fit Center  507 is at  -0.796375  1.193115  2.749439
      ESP Fit Center  508 is at  -1.336375  2.128422  2.749439
      ESP Fit Center  509 is at  -2.416375  2.128422  2.749439
      ESP Fit Center  510 is at  -2.956375  1.193115  2.749439
      ESP Fit Center  511 is at  -2.416375  0.257807  2.749439
      ESP Fit Center  512 is at  -1.336375  0.257807  2.749439
      ESP Fit Center  513 is at  -1.099294  2.894686  1.958824
      ESP Fit Center  514 is at  -2.142591  3.044689  1.958824
      ESP Fit Center  515 is at  -3.101367  2.606831  1.958824
      ESP Fit Center  516 is at  -3.671217  1.720128  1.958824
      ESP Fit Center  517 is at  -0.649355  2.970760  0.878824
      ESP Fit Center  518 is at  -1.616016  3.337366  0.878824
      ESP Fit Center  519 is at  -2.642322  3.212750  0.878824
      ESP Fit Center  520 is at  -3.493158  2.625459  0.878824
[...]
  162 Fit       0.305979
  163 Fit       0.306435
  164 Fit       0.286702
  165 Fit       0.274059
  166 Fit       0.283998
  167 Fit       0.278771
  168 Fit       0.276065
  169 Fit       0.286749
  170 Fit       0.294643
  171 Fit       0.305065
  172 Fit       0.283181
  173 Fit       0.286948
  174 Fit       0.269695
  175 Fit       0.291863
  176 Fit       0.281350
  177 Fit       0.268032
  178 Fit       0.269702
  179 Fit       0.291879
  180 Fit       0.281354
  181 Fit       0.268037
  182 Fit       0.283206
  183 Fit       0.286968
  184 Fit       0.284622
  185 Fit       0.277900
  186 Fit       0.276249
  187 Fit       0.295679
  188 Fit       0.309954
  189 Fit       0.297304
  190 Fit       0.287055
  191 Fit       0.275518
  192 Fit       0.279816
  193 Fit       0.297168
  194 Fit       0.295168
  195 Fit       0.298035
  196 Fit       0.315609
  197 Fit       0.295142
  198 Fit       0.298032
  199 Fit       0.315627
  200 Fit       0.287026
  201 Fit       0.275505
  202 Fit       0.279813
  203 Fit       0.297173
  204 Fit       0.277888
  205 Fit       0.276246
  206 Fit       0.295681
  207 Fit       0.309967
  208 Fit       0.297295
  209 Fit       0.284621
  210 Fit       0.279586
  211 Fit       0.264537
  212 Fit       0.264544
  213 Fit       0.279572
  214 Fit       0.279576
  215 Fit       0.271980
  216 Fit       0.264537
  217 Fit       0.264544
  218 Fit       0.271982
  219 Fit       0.279582
  220 Fit       0.253013
  221 Fit       0.262123
  222 Fit       0.267472
  223 Fit       0.271832
  224 Fit       0.270134
  225 Fit       0.250125
  226 Fit       0.247625
  227 Fit       0.279954
  228 Fit       0.248358
  229 Fit       0.246140
  230 Fit       0.264775
  231 Fit       0.248736
  232 Fit       0.259490
  233 Fit       0.264782
  234 Fit       0.248733
  235 Fit       0.259482
  236 Fit       0.279960
  237 Fit       0.248358
  238 Fit       0.246137
  239 Fit       0.262128
  240 Fit       0.267471
  241 Fit       0.271821
  242 Fit       0.270109
  243 Fit       0.250118
  244 Fit       0.247624
  245 Fit       0.253006
  246 Fit       0.253004
  247 Fit       0.270118
  248 Fit       0.250122
  249 Fit       0.247622
  250 Fit       0.262116
  251 Fit       0.267461
  252 Fit       0.271815
  253 Fit       0.279969
  254 Fit       0.248364
  255 Fit       0.246141
  256 Fit       0.264791
  257 Fit       0.248742
  258 Fit       0.259496
  259 Fit       0.264765
  260 Fit       0.248726
  261 Fit       0.259477
  262 Fit       0.279944
  263 Fit       0.248352
  264 Fit       0.246135
  265 Fit       0.270124
  266 Fit       0.250121
  267 Fit       0.247627
  268 Fit       0.262134
  269 Fit       0.267483
  270 Fit       0.271838
  271 Fit       0.253014
  272 Fit       0.251675
  273 Fit       0.261600
  274 Fit       0.244689
  275 Fit       0.241416
  276 Fit       0.259077
  277 Fit       0.276702
  278 Fit       0.272020
  279 Fit       0.262984
  280 Fit       0.241489
  281 Fit       0.237291
  282 Fit       0.251989
  283 Fit       0.254323
  284 Fit       0.241939
  285 Fit       0.247298
  286 Fit       0.277955
  287 Fit       0.254346
  288 Fit       0.241959
  289 Fit       0.247322
  290 Fit       0.277996
  291 Fit       0.262976
  292 Fit       0.241487
  293 Fit       0.237289
  294 Fit       0.251981
  295 Fit       0.261557
  296 Fit       0.244665
  297 Fit       0.241389
  298 Fit       0.259012
  299 Fit       0.276588
  300 Fit       0.271949
  301 Fit       0.251624
  302 Fit       0.254346
  303 Fit       0.241958
  304 Fit       0.247318
  305 Fit       0.277979
  306 Fit       0.262980
  307 Fit       0.241489
  308 Fit       0.237288
  309 Fit       0.251976
  310 Fit       0.259024
  311 Fit       0.276612
  312 Fit       0.271959
  313 Fit       0.261564
  314 Fit       0.244669
  315 Fit       0.241393
  316 Fit       0.251633
  317 Fit       0.251666
  318 Fit       0.259066
  319 Fit       0.276677
  320 Fit       0.272009
  321 Fit       0.261594
  322 Fit       0.244685
  323 Fit       0.241413
  324 Fit       0.262981
  325 Fit       0.241488
  326 Fit       0.237292
  327 Fit       0.251994
  328 Fit       0.254324
  329 Fit       0.241940
  330 Fit       0.247302
  331 Fit       0.277974
  332 Fit       0.263385
  333 Fit       0.261900
  334 Fit       0.269542
  335 Fit       0.286593
  336 Fit       0.261461
  337 Fit       0.253191
  338 Fit       0.255786
  339 Fit       0.268360
  340 Fit       0.283579
  341 Fit       0.284958
  342 Fit       0.271382
  343 Fit       0.257680
  344 Fit       0.255376
  345 Fit       0.267261
  346 Fit       0.264954
  347 Fit       0.267132
  348 Fit       0.267103
  349 Fit       0.259399
  350 Fit       0.249425
  351 Fit       0.251979
  352 Fit       0.267391
  353 Fit       0.250941
  354 Fit       0.244838
  355 Fit       0.247442
  356 Fit       0.261210
  357 Fit       0.259374
  358 Fit       0.249401
  359 Fit       0.251947
  360 Fit       0.267063
  361 Fit       0.267011
  362 Fit       0.264906
  363 Fit       0.283529
  364 Fit       0.284862
  365 Fit       0.271283
  366 Fit       0.257629
  367 Fit       0.255359
  368 Fit       0.267245
  369 Fit       0.261406
  370 Fit       0.253186
  371 Fit       0.255803
  372 Fit       0.268383
  373 Fit       0.263409
  374 Fit       0.261956
  375 Fit       0.269618
  376 Fit       0.286675
  377 Fit       0.267042
  378 Fit       0.267086
  379 Fit       0.251957
  380 Fit       0.259382
  381 Fit       0.249409
  382 Fit       0.247442
  383 Fit       0.261210
  384 Fit       0.267391
  385 Fit       0.250941
  386 Fit       0.244838
  387 Fit       0.251969
  388 Fit       0.259391
  389 Fit       0.249417
  390 Fit       0.267071
  391 Fit       0.267109
  392 Fit       0.264930
  393 Fit       0.257660
  394 Fit       0.255369
  395 Fit       0.267252
  396 Fit       0.283551
  397 Fit       0.284906
  398 Fit       0.271337
  399 Fit       0.261445
  400 Fit       0.253194
  401 Fit       0.255796
  402 Fit       0.268371
  403 Fit       0.263408
  404 Fit       0.261933
  405 Fit       0.269580
  406 Fit       0.286629
  407 Fit       0.263387
  408 Fit       0.261923
  409 Fit       0.269580
  410 Fit       0.286639
  411 Fit       0.261422
  412 Fit       0.253183
  413 Fit       0.255792
  414 Fit       0.268373
  415 Fit       0.257649
  416 Fit       0.255365
  417 Fit       0.267253
  418 Fit       0.283557
  419 Fit       0.284914
  420 Fit       0.271328
  421 Fit       0.264929
  422 Fit       0.259398
  423 Fit       0.251133
  424 Fit       0.245203
  425 Fit       0.241875
  426 Fit       0.245159
  427 Fit       0.253196
  428 Fit       0.262592
  429 Fit       0.274248
  430 Fit       0.245208
  431 Fit       0.251149
  432 Fit       0.259384
  433 Fit       0.259387
  434 Fit       0.250263
  435 Fit       0.258867
  436 Fit       0.245201
  437 Fit       0.241875
  438 Fit       0.245159
  439 Fit       0.253196
  440 Fit       0.262592
  441 Fit       0.274248
  442 Fit       0.245209
  443 Fit       0.250267
  444 Fit       0.258862
  445 Fit       0.259395
  446 Fit       0.259879
  447 Fit       0.246145
  448 Fit       0.255355
  449 Fit       0.259878
  450 Fit       0.246145
  451 Fit       0.255355
  452 Fit       0.248713
  453 Fit       0.238458
  454 Fit       0.241265
  455 Fit       0.248713
  456 Fit       0.238458
  457 Fit       0.241265
  458 Fit       0.242623
  459 Fit       0.253187
  460 Fit       0.258562
  461 Fit       0.262172
  462 Fit       0.259890
  463 Fit       0.239231
  464 Fit       0.237240
  465 Fit       0.254080
  466 Fit       0.234422
  467 Fit       0.238408
  468 Fit       0.246647
  469 Fit       0.239036
  470 Fit       0.246648
  471 Fit       0.239031
  472 Fit       0.254084
  473 Fit       0.234421
  474 Fit       0.238405
  475 Fit       0.253192
  476 Fit       0.258560
  477 Fit       0.262163
  478 Fit       0.259863
  479 Fit       0.239223
  480 Fit       0.237238
  481 Fit       0.242617
  482 Fit       0.242615
  483 Fit       0.259872
  484 Fit       0.239227
  485 Fit       0.237237
  486 Fit       0.253180
  487 Fit       0.258550
  488 Fit       0.262154
  489 Fit       0.240934
  490 Fit       0.233668
  491 Fit       0.260682
  492 Fit       0.239876
  493 Fit       0.243877
  494 Fit       0.260654
  495 Fit       0.239859
  496 Fit       0.243860
  497 Fit       0.240922
  498 Fit       0.233660
  499 Fit       0.259880
  500 Fit       0.239226
  501 Fit       0.237241
  502 Fit       0.253198
  503 Fit       0.258572
  504 Fit       0.262181
  505 Fit       0.242626
  506 Fit       0.240084
  507 Fit       0.251772
  508 Fit       0.233451
  509 Fit       0.229272
  510 Fit       0.246794
  511 Fit       0.265166
  512 Fit       0.261782
  513 Fit       0.233261
  514 Fit       0.224844
  515 Fit       0.231948
  516 Fit       0.256450
  517 Fit       0.248153
  518 Fit       0.232261
  519 Fit       0.231856
  520 Fit       0.250076
  521 Fit       0.248177
  522 Fit       0.232282
  523 Fit       0.231878
  524 Fit       0.250107
  525 Fit       0.233259
  526 Fit       0.224843
  527 Fit       0.231944
  528 Fit       0.256428
  529 Fit       0.251726
  530 Fit       0.233426
  531 Fit       0.229245
  532 Fit       0.246728
  533 Fit       0.265050
  534 Fit       0.261710
  535 Fit       0.240032
  536 Fit       0.238242
  537 Fit       0.230114
  538 Fit       0.238134
  539 Fit       0.243265
  540 Fit       0.227159
  541 Fit       0.226358
  542 Fit       0.241933
  543 Fit       0.246740
  544 Fit       0.265074
  545 Fit       0.261719
  546 Fit       0.251733
  547 Fit       0.233430
  548 Fit       0.229249
  549 Fit       0.240041
  550 Fit       0.240075
  551 Fit       0.246782
  552 Fit       0.265141
  553 Fit       0.261773
  554 Fit       0.251765
  555 Fit       0.233447
  556 Fit       0.229269
  557 Fit       0.243264
  558 Fit       0.227158
  559 Fit       0.226362
  560 Fit       0.241953
  561 Fit       0.238221
  562 Fit       0.230095
  563 Fit       0.238117
  564 Fit       0.244458
  565 Fit       0.246528
  566 Fit       0.256485
  567 Fit       0.239070
  568 Fit       0.236051
  569 Fit       0.241647
  570 Fit       0.256375
  571 Fit       0.268870
  572 Fit       0.269613
  573 Fit       0.254799
  574 Fit       0.240795
  575 Fit       0.238664
  576 Fit       0.251407
  577 Fit       0.248680
  578 Fit       0.250619
  579 Fit       0.250046
  580 Fit       0.248408
  581 Fit       0.234736
  582 Fit       0.232223
  583 Fit       0.240843
  584 Fit       0.257363
  585 Fit       0.238096
  586 Fit       0.229168
  587 Fit       0.228039
  588 Fit       0.234989
  589 Fit       0.248380
  590 Fit       0.234712
  591 Fit       0.232195
  592 Fit       0.240803
  593 Fit       0.250551
  594 Fit       0.249958
  595 Fit       0.248631
  596 Fit       0.268818
  597 Fit       0.269514
  598 Fit       0.254701
  599 Fit       0.240744
  600 Fit       0.238647
  601 Fit       0.251391
  602 Fit       0.239043
  603 Fit       0.236056
  604 Fit       0.241667
  605 Fit       0.256398
  606 Fit       0.244495
  607 Fit       0.246591
  608 Fit       0.256563
  609 Fit       0.249987
  610 Fit       0.250573
  611 Fit       0.234911
  612 Fit       0.239957
  613 Fit       0.232189
  614 Fit       0.230372
  615 Fit       0.242445
  616 Fit       0.246162
  617 Fit       0.232566
  618 Fit       0.227677
  619 Fit       0.234923
  620 Fit       0.239966
  621 Fit       0.232198
  622 Fit       0.250016
  623 Fit       0.250596
  624 Fit       0.248656
  625 Fit       0.240775
  626 Fit       0.238658
  627 Fit       0.251398
  628 Fit       0.268841
  629 Fit       0.269559
  630 Fit       0.254754
  631 Fit       0.244158
  632 Fit       0.236430
  633 Fit       0.237804
  634 Fit       0.247755
  635 Fit       0.244532
  636 Fit       0.250518
  637 Fit       0.264851
  638 Fit       0.244521
  639 Fit       0.250516
  640 Fit       0.264858
  641 Fit       0.244136
  642 Fit       0.236418
  643 Fit       0.237799
  644 Fit       0.247756
  645 Fit       0.240764
  646 Fit       0.238654
  647 Fit       0.251399
  648 Fit       0.268847
  649 Fit       0.269568
  650 Fit       0.254745
  651 Fit       0.248655
  652 Fit       0.241984
  653 Fit       0.236635
  654 Fit       0.232575
  655 Fit       0.227496
  656 Fit       0.224969
  657 Fit       0.224948
  658 Fit       0.229990
  659 Fit       0.224974
  660 Fit       0.224952
  661 Fit       0.230001
  662 Fit       0.227500
  663 Fit       0.236655
  664 Fit       0.232579
  665 Fit       0.241973
  666 Fit       0.241974
  667 Fit       0.232219
  668 Fit       0.240421
  669 Fit       0.234150
  670 Fit       0.228333
  671 Fit       0.228196
  672 Fit       0.224215
  673 Fit       0.226973
  674 Fit       0.233703
  675 Fit       0.253808
  676 Fit       0.224217
  677 Fit       0.226977
  678 Fit       0.233706
  679 Fit       0.253806
  680 Fit       0.228333
  681 Fit       0.228203
  682 Fit       0.232224
  683 Fit       0.240421
  684 Fit       0.234147
  685 Fit       0.241983
  686 Fit       0.240386
  687 Fit       0.236555
  688 Fit       0.240379
  689 Fit       0.236551
  690 Fit       0.229272
  691 Fit       0.229262
  692 Fit       0.232958
  693 Fit       0.241241
  694 Fit       0.246488
  695 Fit       0.248670
  696 Fit       0.245288
  697 Fit       0.229059
  698 Fit       0.227771
  699 Fit       0.239753
  700 Fit       0.224106
  701 Fit       0.227701
  702 Fit       0.250170
  703 Fit       0.228691
  704 Fit       0.227637
  705 Fit       0.250183
  706 Fit       0.228691
  707 Fit       0.227632
  708 Fit       0.239750
  709 Fit       0.224103
  710 Fit       0.227698
  711 Fit       0.241243
  712 Fit       0.246486
  713 Fit       0.248660
  714 Fit       0.245266
  715 Fit       0.229051
  716 Fit       0.227768
  717 Fit       0.232952
  718 Fit       0.232949
  719 Fit       0.245272
  720 Fit       0.229054
  721 Fit       0.227767
  722 Fit       0.241234
  723 Fit       0.246476
  724 Fit       0.248653
  725 Fit       0.229365
  726 Fit       0.223607
  727 Fit       0.250189
  728 Fit       0.228698
  729 Fit       0.227641
  730 Fit       0.250164
  731 Fit       0.228684
  732 Fit       0.227628
  733 Fit       0.229356
  734 Fit       0.223602
  735 Fit       0.245282
  736 Fit       0.229056
  737 Fit       0.227772
  738 Fit       0.241250
  739 Fit       0.246497
  740 Fit       0.248677
  741 Fit       0.232961
  742 Fit       0.229617
  743 Fit       0.239635
  744 Fit       0.223647
  745 Fit       0.219463
  746 Fit       0.233485
  747 Fit       0.248766
  748 Fit       0.248115
  749 Fit       0.222516
  750 Fit       0.214454
  751 Fit       0.219653
  752 Fit       0.238386
  753 Fit       0.221025
  754 Fit       0.216358
  755 Fit       0.224328
  756 Fit       0.221036
  757 Fit       0.216370
  758 Fit       0.224340
  759 Fit       0.222507
  760 Fit       0.214447
  761 Fit       0.219640
  762 Fit       0.238351
  763 Fit       0.239589
  764 Fit       0.223619
  765 Fit       0.219432
  766 Fit       0.233423
  767 Fit       0.248667
  768 Fit       0.248046
  769 Fit       0.229566
  770 Fit       0.221036
  771 Fit       0.216369
  772 Fit       0.224337
  773 Fit       0.231469
  774 Fit       0.216834
  775 Fit       0.215359
  776 Fit       0.227357
  777 Fit       0.233434
  778 Fit       0.248686
  779 Fit       0.248055
  780 Fit       0.239595
  781 Fit       0.223624
  782 Fit       0.219437
  783 Fit       0.229574
  784 Fit       0.229609
  785 Fit       0.233475
  786 Fit       0.248747
  787 Fit       0.248106
  788 Fit       0.239628
  789 Fit       0.223643
  790 Fit       0.219458
  791 Fit       0.231475
  792 Fit       0.216837
  793 Fit       0.215367
  794 Fit       0.227379
  795 Fit       0.221024
  796 Fit       0.216359
  797 Fit       0.224332
  798 Fit       0.226654
  799 Fit       0.224860
  800 Fit       0.229503
  801 Fit       0.240979
  802 Fit       0.223394
  803 Fit       0.221390
  804 Fit       0.226964
  805 Fit       0.240782
  806 Fit       0.252249
  807 Fit       0.252242
  808 Fit       0.238940
  809 Fit       0.226924
  810 Fit       0.225491
  811 Fit       0.237102
  812 Fit       0.234833
  813 Fit       0.236501
  814 Fit       0.223258
  815 Fit       0.220840
  816 Fit       0.229005
  817 Fit       0.217896
  818 Fit       0.214059
  819 Fit       0.216747
  820 Fit       0.228994
  821 Fit       0.217887
  822 Fit       0.214049
  823 Fit       0.216734
  824 Fit       0.236463
  825 Fit       0.223225
  826 Fit       0.220803
  827 Fit       0.234784
  828 Fit       0.252197
  829 Fit       0.252153
  830 Fit       0.238854
  831 Fit       0.226875
  832 Fit       0.225470
  833 Fit       0.237081
  834 Fit       0.223364
  835 Fit       0.221388
  836 Fit       0.226974
  837 Fit       0.240792
  838 Fit       0.226655
  839 Fit       0.224887
  840 Fit       0.229545
  841 Fit       0.241029
  842 Fit       0.223452
  843 Fit       0.228321
  844 Fit       0.220782
  845 Fit       0.216738
  846 Fit       0.228998
  847 Fit       0.217890
  848 Fit       0.214052
  849 Fit       0.216743
  850 Fit       0.229001
  851 Fit       0.217893
  852 Fit       0.214056
  853 Fit       0.223467
  854 Fit       0.228333
  855 Fit       0.220794
  856 Fit       0.234809
  857 Fit       0.226904
  858 Fit       0.225483
  859 Fit       0.237091
  860 Fit       0.252221
  861 Fit       0.252194
  862 Fit       0.238900
  863 Fit       0.227253
  864 Fit       0.221439
  865 Fit       0.223222
  866 Fit       0.232763
  867 Fit       0.226663
  868 Fit       0.224878
  869 Fit       0.229526
  870 Fit       0.241003
  871 Fit       0.226646
  872 Fit       0.224868
  873 Fit       0.229522
  874 Fit       0.241005
  875 Fit       0.227235
  876 Fit       0.221429
  877 Fit       0.223218
  878 Fit       0.232763
  879 Fit       0.226896
  880 Fit       0.225479
  881 Fit       0.237092
  882 Fit       0.252226
  883 Fit       0.252201
  884 Fit       0.238893
  885 Fit       0.234808
 -----------------------------------------------------------------
 Leave Link  602 at Thu Mar 16 16:55:00 2023, MaxMem=   33554432 cpu:       0.3
 (Enter /share/apps/g09/l9999.exe)

 Test job not archived.
 1\1\GINC-COMPUTE-0-24\SP\RHF\6-31G(d)\C4H14N2(2+)\SLABANDA\16-Mar-2023
 \0\\#P HF/6-31G* POP(MK) IOP(6/33=2) scf=direct Test geom=allcheck gue
 ss=read\\Optimizacion de estructura de putrescina\\2,1\N,0,3.159176038
 3,0.2517860801,0.0017642143\N,0,-3.1591775841,-0.2518417916,-0.0028701
 006\C,0,0.6563180934,0.4024845466,-0.0018488582\C,0,-0.6563185797,-0.4
 025474684,0.0004216734\C,0,1.8669101982,-0.5314668294,0.0032114319\C,0
 ,-1.8669078998,0.5314030813,-0.0053857611\H,0,0.6894038461,1.048277007
 8,0.8716986426\H,0,0.6910362752,1.0407593742,-0.8808444564\H,0,-0.6912
 147516,-1.0404397666,0.879684833\H,0,-0.6892285557,-1.0487200016,-0.87
 28541661\H,0,1.8961163328,-1.1560887472,0.8851828224\H,0,1.898207852,-
 1.162818163,-0.8738810013\H,0,-1.8962565192,1.1550504214,-0.8880408374
 \H,0,-1.898058031,1.163723207,0.8710147347\H,0,3.2481435965,0.84167849
 26,-0.8150295423\H,0,3.9588072097,-0.3692067984,0.0042040827\H,0,3.246
 9625513,0.8465644304,0.8151334494\H,0,-3.9588059309,0.3691510123,-0.00
 61073062\H,0,-3.2481222251,-0.8406581448,0.8147006425\H,0,-3.246991916
 5,-0.8476899426,-0.8154544973\\Version=EM64L-G09RevA.01\State=1-A\HF=-
 267.9785692\RMSD=5.054e-09\Dipole=-0.000001,0.0000057,0.0004802\Quadru
 pole=43.2771197,-21.3125577,-21.9645619,4.1565449,0.0523492,0.0017819\
 PG=C01 [X(C4H14N2)]\\@


     "IF I COULD JUST GET IT ON PAPER"
 LIFE AND INK, THEY RUN OUT AT THE SAME TIME,
 OR SO SAID MY OLD FRIEND THE SQUID.
     -- JIMMY BUFFETT, 1981
 Job cpu time:  0 days  0 hours  0 minutes 10.3 seconds.
 File lengths (MBytes):  RWF=     72 Int=      0 D2E=      0 Chk=      4 Scr=      2
 Normal termination of Gaussian 09 at Thu Mar 16 16:55:02 2023.
