 Entering Gaussian System, Link 0=g09
 Input=spm_cargas.com
 Output=spm_cargas.log
 Initial command:
 /share/apps/g09/l1.exe /home/slabanda/ligandos/SPM/02_cargas/Gau-16057.inp -scrdir=/home/slabanda/ligandos/SPM/02_cargas/
 Entering Link 1 = /share/apps/g09/l1.exe PID=     16059.
  
 Copyright (c) 1988,1990,1992,1993,1995,1998,2003,2009, Gaussian, Inc.
                  All Rights Reserved.
  
 This is part of the Gaussian(R) 09 program.  It is based on
 the Gaussian(R) 03 system (copyright 2003, Gaussian, Inc.),
 the Gaussian(R) 98 system (copyright 1998, Gaussian, Inc.),
 the Gaussian(R) 94 system (copyright 1995, Gaussian, Inc.),
 the Gaussian 92(TM) system (copyright 1992, Gaussian, Inc.),
 the Gaussian 90(TM) system (copyright 1990, Gaussian, Inc.),
 the Gaussian 88(TM) system (copyright 1988, Gaussian, Inc.),
 the Gaussian 86(TM) system (copyright 1986, Carnegie Mellon
 University), and the Gaussian 82(TM) system (copyright 1983,
 Carnegie Mellon University). Gaussian is a federally registered
 trademark of Gaussian, Inc.
  
 This software contains proprietary and confidential information,
 including trade secrets, belonging to Gaussian, Inc.
  
 This software is provided under written license and may be
 used, copied, transmitted, or stored only in accord with that
 written license.
  
 The following legend is applicable only to US Government
 contracts under FAR:
  
                    RESTRICTED RIGHTS LEGEND
  
 Use, reproduction and disclosure by the US Government is
 subject to restrictions as set forth in subparagraphs (a)
 and (c) of the Commercial Computer Software - Restricted
 Rights clause in FAR 52.227-19.
  
 Gaussian, Inc.
 340 Quinnipiac St., Bldg. 40, Wallingford CT 06492
  
  
 ---------------------------------------------------------------
 Warning -- This program may not be used in any manner that
 competes with the business of Gaussian, Inc. or will provide
 assistance to any competitor of Gaussian, Inc.  The licensee
 of this program is prohibited from giving any competitor of
 Gaussian, Inc. access to this program.  By using this program,
 the user acknowledges that Gaussian, Inc. is engaged in the
 business of creating and licensing software in the field of
 computational chemistry and represents and warrants to the
 licensee that it is not a competitor of Gaussian, Inc. and that
 it will not use this program in any manner prohibited above.
 ---------------------------------------------------------------
  

 Cite this work as:
 Gaussian 09, Revision A.01,
 M. J. Frisch, G. W. Trucks, H. B. Schlegel, G. E. Scuseria, 
 M. A. Robb, J. R. Cheeseman, G. Scalmani, V. Barone, B. Mennucci, 
 G. A. Petersson, H. Nakatsuji, M. Caricato, X. Li, H. P. Hratchian, 
 A. F. Izmaylov, J. Bloino, G. Zheng, J. L. Sonnenberg, M. Hada, 
 M. Ehara, K. Toyota, R. Fukuda, J. Hasegawa, M. Ishida, T. Nakajima, 
 Y. Honda, O. Kitao, H. Nakai, T. Vreven, J. A. Montgomery, Jr., 
 J. E. Peralta, F. Ogliaro, M. Bearpark, J. J. Heyd, E. Brothers, 
 K. N. Kudin, V. N. Staroverov, R. Kobayashi, J. Normand, 
 K. Raghavachari, A. Rendell, J. C. Burant, S. S. Iyengar, J. Tomasi, 
 M. Cossi, N. Rega, J. M. Millam, M. Klene, J. E. Knox, J. B. Cross, 
 V. Bakken, C. Adamo, J. Jaramillo, R. Gomperts, R. E. Stratmann, 
 O. Yazyev, A. J. Austin, R. Cammi, C. Pomelli, J. W. Ochterski, 
 R. L. Martin, K. Morokuma, V. G. Zakrzewski, G. A. Voth, 
 P. Salvador, J. J. Dannenberg, S. Dapprich, A. D. Daniels, 
 O. Farkas, J. B. Foresman, J. V. Ortiz, J. Cioslowski, 
 and D. J. Fox, Gaussian, Inc., Wallingford CT, 2009.
 
 ******************************************
 Gaussian 09:  EM64L-G09RevA.01  8-May-2009
                17-Mar-2023 
 ******************************************
 %nproc=4
 Will use up to    4 processors via shared memory.
 %chk=spm_cargas.chk
 ----------------------------------------------------------------------
 #P HF/6-31G* POP(MK) IOP(6/33=2) scf=direct Test geom=allcheck guess=r
 ead
 ----------------------------------------------------------------------
 1/29=7,38=1/1;
 2/12=2,40=1/2;
 3/5=1,6=6,7=1,11=9,14=-4,16=1,25=1,30=1,116=-2/1,2,3;
 4/5=1/1;
 5/5=2,38=6/2;
 6/7=2,8=2,9=2,10=2,15=8,20=1,28=1,33=2/1,2;
 99/5=1,9=1/99;
 Leave Link    1 at Fri Mar 17 16:25:11 2023, MaxMem=          0 cpu:       1.6
 (Enter /share/apps/g09/l101.exe)
 ---------------------------------------
 Optimizacion de estructura de espermina
 ---------------------------------------
 Redundant internal coordinates taken from checkpoint file:
 spm_cargas.chk
 Charge =  4 Multiplicity = 1
 N,0,-0.31352147,0.0143126462,8.2224188495
 C,0,0.5008071602,-0.022152485,6.9550354218
 C,0,-0.3896831084,0.0146351497,5.7020776096
 C,0,0.4860900985,-0.0244665283,4.4377937333
 N,0,-0.3451495307,0.0097619165,3.1735463858
 C,0,0.4705079096,-0.026776642,1.8932955513
 C,0,-0.4245992551,0.0102141435,0.6453284893
 C,0,0.4204274503,-0.0276034577,-0.6495376105
 C,0,-0.4746797096,0.0093874716,-1.8975046641
 N,0,0.340977755,-0.0271510676,-3.1777554844
 C,0,-0.4902618412,0.0070772242,-4.4420028194
 C,0,0.3855113272,-0.0320253605,-5.7062866916
 C,0,-0.5049789901,0.0047610078,-6.9592445377
 N,0,0.3093494919,-0.0317062509,-8.226627924
 H,0,0.2957732904,-0.0109123209,9.0336352893
 H,0,-0.9404279835,-0.7759649655,8.312038556
 H,0,-0.8703368545,0.8556483089,8.3101293116
 H,0,1.0907330613,-0.9272184535,7.0037222393
 H,0,1.1661813515,0.8290995813,7.0016670214
 H,0,-0.9913740876,0.919825138,5.706912424
 H,0,-1.0667846702,-0.8356061838,5.7089670453
 H,0,1.0757558071,-0.9301114695,4.3907419852
 H,0,1.1512450993,0.8271609719,4.3886847346
 H,0,-0.9205069819,0.8413187072,3.1747744172
 H,0,-0.9897002202,-0.7693844673,3.17666049
 H,0,1.0599839575,-0.9325750117,1.9367024504
 H,0,1.1354964445,0.8252312418,1.9346438757
 H,0,-1.0291477247,0.913238984,0.6565153613
 H,0,-1.1043614824,-0.8376101,0.6585659672
 H,0,1.024975891,-0.9306283257,-0.6607245204
 H,0,1.1001897632,0.8202207243,-0.6627750582
 H,0,-1.064155655,0.9151859072,-1.9409115375
 H,0,-1.1396683301,-0.8426203464,-1.9388530116
 H,0,0.9163351706,-0.8587078796,-3.1789834368
 H,0,0.9855284765,0.7519953061,-3.1808695867
 H,0,-1.079927256,0.9127223717,-4.3949514634
 H,0,-1.1554171431,-0.8445500161,-4.3928934887
 H,0,0.9872023839,-0.9372153109,-5.7111207365
 H,0,1.0626128651,0.8182159849,-5.7131768598
 H,0,-1.0949045534,0.9098271537,-7.007932482
 H,0,-1.1703535402,-0.8464908452,-7.0058748746
 H,0,0.9362563647,0.7585709579,-8.3162487986
 H,0,-0.2999452909,-0.0064821874,-9.0378443748
 H,0,0.8661645139,-0.8730422817,-8.3143372464
 Recover connectivity data from disk.
                    Isotopes and Nuclear Properties:
 (Nuclear quadrupole moments (NQMom) in fm**2, nuclear magnetic moments (NMagM)
  in nuclear magnetons)

  Atom         1           2           3           4           5           6           7           8           9          10
 IAtWgt=          14          12          12          12          14          12          12          12          12          14
 AtmWgt=  14.0030740  12.0000000  12.0000000  12.0000000  14.0030740  12.0000000  12.0000000  12.0000000  12.0000000  14.0030740
 NucSpn=           2           0           0           0           2           0           0           0           0           2
 AtZEff=  -4.5500000  -3.6000000  -3.6000000  -3.6000000  -4.5500000  -3.6000000  -3.6000000  -3.6000000  -3.6000000  -4.5500000
 NQMom=    2.0440000   0.0000000   0.0000000   0.0000000   2.0440000   0.0000000   0.0000000   0.0000000   0.0000000   2.0440000
 NMagM=    0.4037610   0.0000000   0.0000000   0.0000000   0.4037610   0.0000000   0.0000000   0.0000000   0.0000000   0.4037610

  Atom        11          12          13          14          15          16          17          18          19          20
 IAtWgt=          12          12          12          14           1           1           1           1           1           1
 AtmWgt=  12.0000000  12.0000000  12.0000000  14.0030740   1.0078250   1.0078250   1.0078250   1.0078250   1.0078250   1.0078250
 NucSpn=           0           0           0           2           1           1           1           1           1           1
 AtZEff=  -3.6000000  -3.6000000  -3.6000000  -4.5500000  -1.0000000  -1.0000000  -1.0000000  -1.0000000  -1.0000000  -1.0000000
 NQMom=    0.0000000   0.0000000   0.0000000   2.0440000   0.0000000   0.0000000   0.0000000   0.0000000   0.0000000   0.0000000
 NMagM=    0.0000000   0.0000000   0.0000000   0.4037610   2.7928460   2.7928460   2.7928460   2.7928460   2.7928460   2.7928460

  Atom        21          22          23          24          25          26          27          28          29          30
 IAtWgt=           1           1           1           1           1           1           1           1           1           1
 AtmWgt=   1.0078250   1.0078250   1.0078250   1.0078250   1.0078250   1.0078250   1.0078250   1.0078250   1.0078250   1.0078250
 NucSpn=           1           1           1           1           1           1           1           1           1           1
 AtZEff=  -1.0000000  -1.0000000  -1.0000000  -1.0000000  -1.0000000  -1.0000000  -1.0000000  -1.0000000  -1.0000000  -1.0000000
 NQMom=    0.0000000   0.0000000   0.0000000   0.0000000   0.0000000   0.0000000   0.0000000   0.0000000   0.0000000   0.0000000
 NMagM=    2.7928460   2.7928460   2.7928460   2.7928460   2.7928460   2.7928460   2.7928460   2.7928460   2.7928460   2.7928460

  Atom        31          32          33          34          35          36          37          38          39          40
 IAtWgt=           1           1           1           1           1           1           1           1           1           1
 AtmWgt=   1.0078250   1.0078250   1.0078250   1.0078250   1.0078250   1.0078250   1.0078250   1.0078250   1.0078250   1.0078250
 NucSpn=           1           1           1           1           1           1           1           1           1           1
 AtZEff=  -1.0000000  -1.0000000  -1.0000000  -1.0000000  -1.0000000  -1.0000000  -1.0000000  -1.0000000  -1.0000000  -1.0000000
 NQMom=    0.0000000   0.0000000   0.0000000   0.0000000   0.0000000   0.0000000   0.0000000   0.0000000   0.0000000   0.0000000
 NMagM=    2.7928460   2.7928460   2.7928460   2.7928460   2.7928460   2.7928460   2.7928460   2.7928460   2.7928460   2.7928460

  Atom        41          42          43          44
 IAtWgt=           1           1           1           1
 AtmWgt=   1.0078250   1.0078250   1.0078250   1.0078250
 NucSpn=           1           1           1           1
 AtZEff=  -1.0000000  -1.0000000  -1.0000000  -1.0000000
 NQMom=    0.0000000   0.0000000   0.0000000   0.0000000
 NMagM=    2.7928460   2.7928460   2.7928460   2.7928460
 Leave Link  101 at Fri Mar 17 16:25:14 2023, MaxMem=   33554432 cpu:       2.2
 (Enter /share/apps/g09/l202.exe)
                          Input orientation:                          
 ---------------------------------------------------------------------
 Center     Atomic      Atomic             Coordinates (Angstroms)
 Number     Number       Type             X           Y           Z
 ---------------------------------------------------------------------
      1          7           0       -0.313521    0.014313    8.222419
      2          6           0        0.500807   -0.022152    6.955035
      3          6           0       -0.389683    0.014635    5.702078
      4          6           0        0.486090   -0.024467    4.437794
      5          7           0       -0.345150    0.009762    3.173546
      6          6           0        0.470508   -0.026777    1.893296
      7          6           0       -0.424599    0.010214    0.645328
      8          6           0        0.420427   -0.027603   -0.649538
      9          6           0       -0.474680    0.009387   -1.897505
     10          7           0        0.340978   -0.027151   -3.177755
     11          6           0       -0.490262    0.007077   -4.442003
     12          6           0        0.385511   -0.032025   -5.706287
     13          6           0       -0.504979    0.004761   -6.959245
     14          7           0        0.309349   -0.031706   -8.226628
     15          1           0        0.295773   -0.010912    9.033635
     16          1           0       -0.940428   -0.775965    8.312039
     17          1           0       -0.870337    0.855648    8.310129
     18          1           0        1.090733   -0.927218    7.003722
     19          1           0        1.166181    0.829100    7.001667
     20          1           0       -0.991374    0.919825    5.706912
     21          1           0       -1.066785   -0.835606    5.708967
     22          1           0        1.075756   -0.930111    4.390742
     23          1           0        1.151245    0.827161    4.388685
     24          1           0       -0.920507    0.841319    3.174774
     25          1           0       -0.989700   -0.769384    3.176660
     26          1           0        1.059984   -0.932575    1.936702
     27          1           0        1.135496    0.825231    1.934644
     28          1           0       -1.029148    0.913239    0.656515
     29          1           0       -1.104361   -0.837610    0.658566
     30          1           0        1.024976   -0.930628   -0.660725
     31          1           0        1.100190    0.820221   -0.662775
     32          1           0       -1.064156    0.915186   -1.940912
     33          1           0       -1.139668   -0.842620   -1.938853
     34          1           0        0.916335   -0.858708   -3.178983
     35          1           0        0.985528    0.751995   -3.180870
     36          1           0       -1.079927    0.912722   -4.394951
     37          1           0       -1.155417   -0.844550   -4.392893
     38          1           0        0.987202   -0.937215   -5.711121
     39          1           0        1.062613    0.818216   -5.713177
     40          1           0       -1.094905    0.909827   -7.007932
     41          1           0       -1.170354   -0.846491   -7.005875
     42          1           0        0.936256    0.758571   -8.316249
     43          1           0       -0.299945   -0.006482   -9.037844
     44          1           0        0.866165   -0.873042   -8.314337
 ---------------------------------------------------------------------
                    Distance matrix (angstroms):
                    1          2          3          4          5
     1  N    0.000000
     2  C    1.506891   0.000000
     3  C    2.521492   1.537605   0.000000
     4  C    3.868368   2.517286   1.538480   0.000000
     5  N    5.048974   3.875090   2.528928   1.513424   0.000000
     6  C    6.377632   5.061833   3.904928   2.544547   1.518445
     7  C    7.577906   6.377290   5.056872   3.900430   2.529466
     8  C    8.902362   7.605000   6.403209   5.087756   3.899163
     9  C   10.121208   8.906180   7.600059   6.407826   5.072705
    10  N   11.419022  10.134053   8.909941   7.616932   6.388362
    11  C   12.665657  11.440085  10.144582   8.933367   7.616932
    12  C   13.946312  12.661851  11.434766  10.144582   8.909941
    13  C   15.182874  13.950610  12.661851  11.440085  10.134053
    14  N   16.460900  15.182874  13.946312  12.665657  11.419022
    15  H    1.014864   2.088718   3.401438   4.599800   5.895070
    16  H    1.012710   2.118218   2.782133   4.196365   5.232191
    17  H    1.012710   2.118218   2.782133   4.196365   5.232192
    18  H    2.084138   1.081447   2.184719   2.786493   4.196420
    19  H    2.084138   1.081447   2.184719   2.786493   4.196420
    20  H    2.758117   2.161420   1.086933   2.164544   2.768351
    21  H    2.758117   2.161420   1.086933   2.164544   2.768350
    22  H    4.183751   2.780388   2.181664   1.081717   2.093776
    23  H    4.183752   2.780388   2.181664   1.081717   2.093776
    24  H    5.150833   4.129902   2.711539   2.079259   1.011199
    25  H    5.150833   4.129901   2.711538   2.079259   1.011199
    26  H    6.503333   5.130810   4.144489   2.722035   2.095753
    27  H    6.503334   5.130811   4.144490   2.722035   2.095753
    28  H    7.652652   6.548822   5.164698   4.180108   2.760357
    29  H    7.652651   6.548822   5.164697   4.180108   2.760357
    30  H    9.032980   7.687645   6.586352   5.206382   4.178901
    31  H    9.032981   7.687645   6.586352   5.206382   4.178901
    32  H   10.230753   9.081056   7.725360   6.631296   5.243514
    33  H   10.230753   9.081056   7.725360   6.631296   5.243514
    34  H   11.500725  10.176975   9.018961   7.674397   6.534540
    35  H   11.500726  10.176975   9.018961   7.674397   6.534540
    36  H   12.672512  11.497605  10.160364   9.019319   7.657506
    37  H   12.672511  11.497604  10.160364   9.019319   7.657506
    38  H   14.026433  12.708479  11.535291  10.202190   9.033783
    39  H   14.026433  12.708479  11.535291  10.202191   9.033783
    40  H   15.276652  14.084721  12.760998  11.592114  10.248647
    41  H   15.276651  14.084720  12.760997  11.592113  10.248646
    42  H   16.602512  15.297427  14.100533  12.785984  11.585254
    43  H   17.260281  16.012921  14.740210  13.498555  12.211485
    44  H   16.602511  15.297426  14.100532  12.785984  11.585253
                    6          7          8          9         10
     6  C    0.000000
     7  C    1.536231   0.000000
     8  C    2.543326   1.546667   0.000000
     9  C    3.907026   2.543326   1.536231   0.000000
    10  N    5.072705   3.899163   2.529466   1.518445   0.000000
    11  C    6.407826   5.087756   3.900429   2.544547   1.513424
    12  C    7.600059   6.403208   5.056872   3.904928   2.528928
    13  C    8.906180   7.605000   6.377290   5.061833   3.875090
    14  N   10.121208   8.902362   7.577906   6.377632   5.048974
    15  H    7.142495   8.419209   9.683990  10.958277  12.211485
    16  H    6.614551   7.724157   9.095154  10.250291  11.585253
    17  H    6.614552   7.724158   9.095155  10.250292  11.585254
    18  H    5.226082   6.603346   7.735050   9.086231  10.248646
    19  H    5.226083   6.603347   7.735051   9.086232  10.248647
    20  H    4.192473   5.173805   6.579913   7.676134   9.033784
    21  H    4.192472   5.173804   6.579913   7.676133   9.033783
    22  H    2.723890   4.142873   5.162208   6.544353   7.657505
    23  H    2.723891   4.142874   5.162209   6.544353   7.657506
    24  H    2.081033   2.708275   4.144695   5.159349   6.534541
    25  H    2.081033   2.708275   4.144694   5.159349   6.534540
    26  H    1.081590   2.181854   2.813653   4.235992   5.243514
    27  H    1.081590   2.181854   2.813653   4.235992   5.243514
    28  H    2.159218   1.086765   2.166155   2.765393   4.178901
    29  H    2.159218   1.086765   2.166155   2.765393   4.178901
    30  H    2.765393   2.166155   1.086765   2.159218   2.760357
    31  H    2.765393   2.166155   1.086765   2.159218   2.760357
    32  H    4.235992   2.813653   2.181854   1.081590   2.095753
    33  H    4.235992   2.813653   2.181854   1.081590   2.095753
    34  H    5.159349   4.144694   2.708275   2.081033   1.011199
    35  H    5.159349   4.144694   2.708275   2.081033   1.011199
    36  H    6.544353   5.162209   4.142874   2.723890   2.093776
    37  H    6.544353   5.162209   4.142874   2.723890   2.093776
    38  H    7.676133   6.579913   5.173804   4.192472   2.768350
    39  H    7.676133   6.579913   5.173805   4.192473   2.768350
    40  H    9.086232   7.735051   6.603347   5.226083   4.196420
    41  H    9.086231   7.735050   6.603346   5.226082   4.196420
    42  H   10.250292   9.095154   7.724158   6.614552   5.232192
    43  H   10.958277   9.683990   8.419209   7.142495   5.895070
    44  H   10.250292   9.095154   7.724157   6.614551   5.232191
                   11         12         13         14         15
    11  C    0.000000
    12  C    1.538480   0.000000
    13  C    2.517286   1.537605   0.000000
    14  N    3.868368   2.521492   1.506891   0.000000
    15  H   13.498555  14.740210  16.012922  17.260281   0.000000
    16  H   12.785984  14.100532  15.297426  16.602510   1.623022
    17  H   12.785985  14.100533  15.297427  16.602512   1.623022
    18  H   11.592113  12.760997  14.084720  15.276651   2.364767
    19  H   11.592114  12.760998  14.084721  15.276653   2.364767
    20  H   10.202191  11.535291  12.708480  14.026434   3.686476
    21  H   10.202190  11.535290  12.708479  14.026432   3.686476
    22  H    9.019319  10.160363  11.497604  12.672511   4.796849
    23  H    9.019320  10.160364  11.497605  12.672512   4.796849
    24  H    7.674397   9.018961  10.176976  11.500726   6.044161
    25  H    7.674397   9.018961  10.176975  11.500725   6.044160
    26  H    6.631296   7.725360   9.081056  10.230753   7.197217
    27  H    6.631296   7.725360   9.081056  10.230753   7.197218
    28  H    5.206382   6.586352   7.687645   9.032980   8.531448
    29  H    5.206382   6.586352   7.687645   9.032980   8.531447
    30  H    4.180108   5.164697   6.548822   7.652652   9.765154
    31  H    4.180108   5.164697   6.548822   7.652652   9.765154
    32  H    2.722035   4.144490   5.130811   6.503334  11.097195
    33  H    2.722035   4.144490   5.130811   6.503334  11.097195
    34  H    2.079259   2.711538   4.129902   5.150833  12.257729
    35  H    2.079259   2.711538   4.129902   5.150833  12.257729
    36  H    1.081717   2.181664   2.780388   4.183752  13.530432
    37  H    1.081717   2.181664   2.780388   4.183751  13.530432
    38  H    2.164544   1.086933   2.161420   2.758117  14.789995
    39  H    2.164544   1.086933   2.161420   2.758117  14.789995
    40  H    2.786493   2.184719   1.081447   2.084138  16.128039
    41  H    2.786493   2.184719   1.081447   2.084138  16.128038
    42  H    4.196365   2.782133   2.118218   1.012710  17.378746
    43  H    4.599800   3.401438   2.088718   1.014864  18.081296
    44  H    4.196365   2.782133   2.118218   1.012710  17.378745
                   16         17         18         19         20
    16  H    0.000000
    17  H    1.633119   0.000000
    18  H    2.420782   2.954845   0.000000
    19  H    2.954845   2.420782   1.757939   0.000000
    20  H    3.108855   2.606819   3.070579   2.517869   0.000000
    21  H    2.606819   3.108855   2.517869   3.070579   1.757052
    22  H    4.411953   4.726289   2.613025   3.149592   3.070439
    23  H    4.726290   4.411953   3.149592   2.613026   2.517365
    24  H    5.385860   5.135620   4.672649   4.358844   2.534346
    25  H    5.135619   5.385859   4.358843   4.672649   3.042303
    26  H    6.683643   6.895248   5.067116   5.363641   4.674820
    27  H    6.895249   6.683645   5.363640   5.067118   4.331574
    28  H    7.840173   7.655478   6.940332   6.714723   5.050543
    29  H    7.655476   7.840173   6.714721   6.940333   5.346695
    30  H    9.186795   9.341264   7.664730   7.863131   6.930847
    31  H    9.341264   9.186797   7.863130   7.664731   6.705034
    32  H   10.392222  10.253046   9.383202   9.216915   7.648172
    33  H   10.253044  10.392223   9.216914   9.383202   7.847671
    34  H   11.640361  11.752911  10.184429  10.322633   9.260760
    35  H   11.752911  11.640362  10.322632  10.184431   9.106535
    36  H   12.819466  12.706938  11.748485  11.616149  10.102255
    37  H   12.706936  12.819467  11.616147  11.748486  10.254073
    38  H   14.155944  14.256937  12.715268  12.836155  11.736049
    39  H   14.256937  14.155946  12.836154  12.715270  11.603776
    40  H   15.413217  15.319804  14.299588  14.191121  12.715270
    41  H   15.319801  15.413217  14.191118  14.299588  12.836155
    42  H   16.804068  16.724522  15.413217  15.319804  14.155946
    43  H   17.378744  17.378746  16.128038  16.128039  14.789996
    44  H   16.724520  16.804068  15.319801  15.413218  14.256937
                   21         22         23         24         25
    21  H    0.000000
    22  H    2.517365   0.000000
    23  H    3.070439   1.758894   0.000000
    24  H    3.042303   2.932850   2.401236   0.000000
    25  H    2.534345   2.401236   2.932850   1.612190   0.000000
    26  H    4.331573   2.454091   3.019473   2.932894   2.401111
    27  H    4.674820   3.019473   2.454092   2.401111   2.932894
    28  H    5.346695   4.666156   4.323264   2.521627   3.030497
    29  H    5.050541   4.323263   4.666156   3.030497   2.521627
    30  H    6.705033   5.051722   5.348112   4.651425   4.337101
    31  H    6.930847   5.348111   5.051723   4.337101   4.651425
    32  H    7.847670   6.933555   6.706679   5.118235   5.388215
    33  H    7.648171   6.706678   6.933555   5.388216   5.118235
    34  H    9.106534   7.571741   7.756735   6.828932   6.635899
    35  H    9.260759   7.756734   7.571741   6.635899   6.828932
    36  H   10.254072   9.232086   9.062986   7.571741   7.756735
    37  H   10.102253   9.062985   9.232087   7.756735   7.571741
    38  H   11.603775  10.102253  10.254073   9.260760   9.106534
    39  H   11.736048  10.254072  10.102254   9.106535   9.260760
    40  H   12.836154  11.748486  11.616148  10.184431  10.322633
    41  H   12.715268  11.616147  11.748486  10.322633  10.184430
    42  H   14.256937  12.819467  12.706938  11.640362  11.752911
    43  H   14.789994  13.530431  13.530432  12.257729  12.257729
    44  H   14.155944  12.706936  12.819467  11.752911  11.640361
                   26         27         28         29         30
    26  H    0.000000
    27  H    1.759429   0.000000
    28  H    3.067634   2.515361   0.000000
    29  H    2.515361   3.067634   1.752465   0.000000
    30  H    2.597664   3.135474   3.058495   2.506643   0.000000
    31  H    3.135473   2.597664   2.506643   3.058495   1.752465
    32  H    4.791876   4.457184   2.597664   3.135473   3.067634
    33  H    4.457184   4.791877   3.135473   2.597664   2.515361
    34  H    5.118235   5.388216   4.651425   4.337101   2.521627
    35  H    5.388215   5.118235   4.337101   4.651425   3.030497
    36  H    6.933555   6.706678   5.051722   5.348112   4.666156
    37  H    6.706678   6.933555   5.348111   5.051722   4.323264
    38  H    7.648171   7.847670   6.930847   6.705033   5.050542
    39  H    7.847670   7.648171   6.705033   6.930847   5.346695
    40  H    9.383202   9.216915   7.664731   7.863131   6.940333
    41  H    9.216914   9.383202   7.863130   7.664730   6.714721
    42  H   10.392223  10.253045   9.186797   9.341264   7.840173
    43  H   11.097195  11.097195   9.765154   9.765154   8.531448
    44  H   10.253045  10.392222   9.341264   9.186796   7.655477
                   31         32         33         34         35
    31  H    0.000000
    32  H    2.515361   0.000000
    33  H    3.067634   1.759429   0.000000
    34  H    3.030496   2.932894   2.401111   0.000000
    35  H    2.521627   2.401111   2.932894   1.612190   0.000000
    36  H    4.323264   2.454092   3.019473   2.932850   2.401236
    37  H    4.666156   3.019473   2.454092   2.401236   2.932850
    38  H    5.346694   4.674820   4.331574   2.534345   3.042303
    39  H    5.050542   4.331574   4.674820   3.042303   2.534346
    40  H    6.714722   5.067117   5.363641   4.672649   4.358844
    41  H    6.940332   5.363640   5.067116   4.358844   4.672649
    42  H    7.655477   6.683644   6.895249   5.385860   5.135620
    43  H    8.531448   7.197218   7.197218   6.044161   6.044161
    44  H    7.840173   6.895248   6.683643   5.135619   5.385860
                   36         37         38         39         40
    36  H    0.000000
    37  H    1.758894   0.000000
    38  H    3.070439   2.517365   0.000000
    39  H    2.517365   3.070439   1.757052   0.000000
    40  H    2.613026   3.149592   3.070579   2.517869   0.000000
    41  H    3.149592   2.613025   2.517869   3.070579   1.757939
    42  H    4.411953   4.726289   3.108855   2.606819   2.420782
    43  H    4.796849   4.796849   3.686476   3.686476   2.364768
    44  H    4.726290   4.411953   2.606819   3.108855   2.954845
                   41         42         43         44
    41  H    0.000000
    42  H    2.954845   0.000000
    43  H    2.364767   1.623022   0.000000
    44  H    2.420782   1.633119   1.623022   0.000000
 Stoichiometry    C10H30N4(4+)
 Framework group  C1[X(C10H30N4)]
 Deg. of freedom   126
 Full point group                 C1      NOp   1
 Largest Abelian subgroup         C1      NOp   1
 Largest concise Abelian subgroup C1      NOp   1
                         Standard orientation:                         
 ---------------------------------------------------------------------
 Center     Atomic      Atomic             Coordinates (Angstroms)
 Number     Number       Type             X           Y           Z
 ---------------------------------------------------------------------
      1          7           0        8.225062   -0.297773   -0.000002
      2          6           0        6.956256    0.515156   -0.000001
      3          6           0        5.704855   -0.378279    0.000000
      4          6           0        4.439042    0.496156    0.000001
      5          7           0        3.176248   -0.337993    0.000001
      6          6           0        1.894573    0.476244    0.000001
      7          6           0        0.648171   -0.421804    0.000001
      8          6           0       -0.648171    0.421804    0.000000
      9          6           0       -1.894573   -0.476244    0.000000
     10          7           0       -3.176248    0.337993    0.000000
     11          6           0       -4.439042   -0.496156    0.000000
     12          6           0       -5.704855    0.378279    0.000000
     13          6           0       -6.956256   -0.515156    0.000000
     14          7           0       -8.225062    0.297773   -0.000001
     15          1           0        9.035212    0.313459   -0.000002
     16          1           0        8.314760   -0.890028   -0.816562
     17          1           0        8.314762   -0.890028    0.816558
     18          1           0        7.002817    1.143465   -0.878970
     19          1           0        7.002818    1.143465    0.878969
     20          1           0        5.711836   -1.018254    0.878526
     21          1           0        5.711835   -1.018254   -0.878525
     22          1           0        4.389864    1.124063   -0.879446
     23          1           0        4.389865    1.124062    0.879448
     24          1           0        3.179485   -0.948505    0.806096
     25          1           0        3.179485   -0.948505   -0.806094
     26          1           0        1.935854    1.104125   -0.879713
     27          1           0        1.935854    1.104125    0.879715
     28          1           0        0.661506   -1.064530    0.876233
     29          1           0        0.661506   -1.064530   -0.876232
     30          1           0       -0.661506    1.064530   -0.876232
     31          1           0       -0.661506    1.064530    0.876233
     32          1           0       -1.935854   -1.104125    0.879715
     33          1           0       -1.935854   -1.104126   -0.879714
     34          1           0       -3.179485    0.948505   -0.806095
     35          1           0       -3.179485    0.948505    0.806095
     36          1           0       -4.389865   -1.124062    0.879448
     37          1           0       -4.389865   -1.124063   -0.879447
     38          1           0       -5.711835    1.018254   -0.878526
     39          1           0       -5.711835    1.018254    0.878526
     40          1           0       -7.002818   -1.143465    0.878969
     41          1           0       -7.002817   -1.143465   -0.878970
     42          1           0       -8.314762    0.890029    0.816558
     43          1           0       -9.035212   -0.313459   -0.000002
     44          1           0       -8.314761    0.890028   -0.816561
 ---------------------------------------------------------------------
 Rotational constants (GHZ):      6.0875073      0.0899661      0.0893097
 Leave Link  202 at Fri Mar 17 16:25:15 2023, MaxMem=   33554432 cpu:       0.1
 (Enter /share/apps/g09/l301.exe)
 Standard basis: 6-31G(d) (6D, 7F)
 Ernie: Thresh=  0.10000D-02 Tol=  0.10000D-05 Strict=F.
 There are   270 symmetry adapted basis functions of A   symmetry.
 Integral buffers will be    131072 words long.
 Raffenetti 1 integral format.
 Two-electron integral symmetry is turned on.
   270 basis functions,   512 primitive gaussians,   270 cartesian basis functions
    57 alpha electrons       57 beta electrons
       nuclear repulsion energy       898.1605939682 Hartrees.
 IExCor=    0 DFT=F Ex=HF Corr=None ExCW=0 ScaHFX=  1.000000
 ScaDFX=  1.000000  1.000000  1.000000  1.000000 ScalE2=  1.000000  1.000000
 IRadAn=      0 IRanWt=     -1 IRanGd=            0 ICorTp=0
 NAtoms=   44 NActive=   44 NUniq=   44 SFac= 7.50D-01 NAtFMM=   80 NAOKFM=F Big=F
 Leave Link  301 at Fri Mar 17 16:25:17 2023, MaxMem=   33554432 cpu:       0.3
 (Enter /share/apps/g09/l302.exe)
 NPDir=0 NMtPBC=     1 NCelOv=     1 NCel=       1 NClECP=     1 NCelD=      1
         NCelK=      1 NCelE2=     1 NClLst=     1 CellRange=     0.0.
 One-electron integrals computed using PRISM.
 NBasis=   270 RedAO= T  NBF=   270
 NBsUse=   270 1.00D-06 NBFU=   270
 Leave Link  302 at Fri Mar 17 16:25:18 2023, MaxMem=   33554432 cpu:       1.5
 (Enter /share/apps/g09/l303.exe)
 DipDrv:  MaxL=1.
 Leave Link  303 at Fri Mar 17 16:25:19 2023, MaxMem=   33554432 cpu:       0.6
 (Enter /share/apps/g09/l401.exe)
 Initial guess read from the checkpoint file:  spm_cargas.chk
 B after Tr=     0.000000    0.000000    0.000000
         Rot=    1.000000    0.000000    0.000000    0.000000 Ang=   0.00 deg.
 Guess basis will be translated and rotated to current coordinates.
 Initial guess orbital symmetries:
       Occupied  (A) (A) (A) (A) (A) (A) (A) (A) (A) (A) (A) (A)
                 (A) (A) (A) (A) (A) (A) (A) (A) (A) (A) (A) (A)
                 (A) (A) (A) (A) (A) (A) (A) (A) (A) (A) (A) (A)
                 (A) (A) (A) (A) (A) (A) (A) (A) (A) (A) (A) (A)
                 (A) (A) (A) (A) (A) (A) (A) (A) (A)
       Virtual   (A) (A) (A) (A) (A) (A) (A) (A) (A) (A) (A) (A)
                 (A) (A) (A) (A) (A) (A) (A) (A) (A) (A) (A) (A)
                 (A) (A) (A) (A) (A) (A) (A) (A) (A) (A) (A) (A)
                 (A) (A) (A) (A) (A) (A) (A) (A) (A) (A) (A) (A)
                 (A) (A) (A) (A) (A) (A) (A) (A) (A) (A) (A) (A)
                 (A) (A) (A) (A) (A) (A) (A) (A) (A) (A) (A) (A)
                 (A) (A) (A) (A) (A) (A) (A) (A) (A) (A) (A) (A)
                 (A) (A) (A) (A) (A) (A) (A) (A) (A) (A) (A) (A)
                 (A) (A) (A) (A) (A) (A) (A) (A) (A) (A) (A) (A)
                 (A) (A) (A) (A) (A) (A) (A) (A) (A) (A) (A) (A)
                 (A) (A) (A) (A) (A) (A) (A) (A) (A) (A) (A) (A)
                 (A) (A) (A) (A) (A) (A) (A) (A) (A) (A) (A) (A)
                 (A) (A) (A) (A) (A) (A) (A) (A) (A) (A) (A) (A)
                 (A) (A) (A) (A) (A) (A) (A) (A) (A) (A) (A) (A)
                 (A) (A) (A) (A) (A) (A) (A) (A) (A) (A) (A) (A)
                 (A) (A) (A) (A) (A) (A) (A) (A) (A) (A) (A) (A)
                 (A) (A) (A) (A) (A) (A) (A) (A) (A) (A) (A) (A)
                 (A) (A) (A) (A) (A) (A) (A) (A) (A)
 The electronic state of the initial guess is 1-A.
 Leave Link  401 at Fri Mar 17 16:25:22 2023, MaxMem=   33554432 cpu:       7.5
 (Enter /share/apps/g09/l502.exe)
 Closed shell SCF:
 Requested convergence on RMS density matrix=1.00D-08 within 128 cycles.
 Requested convergence on MAX density matrix=1.00D-06.
 Requested convergence on             energy=1.00D-06.
 No special actions if energy rises.
 Using DIIS extrapolation, IDIIS=  1040.
 Integral symmetry usage will be decided dynamically.
 IEnd=      240560 IEndB=      240560 NGot=    33554432 MDV=    33403683
 LenX=    33403683 LenY=    33330342
 Fock matrices will be formed incrementally for  20 cycles.

 Cycle   1  Pass 1  IDiag  1:
 FoFCou: FMM=F IPFlag=           0 FMFlag=      100000 FMFlg1=           0
         NFxFlg=           0 DoJE=F BraDBF=F KetDBF=F FulRan=T
         Omega=  0.000000  0.000000  1.000000  0.000000  0.000000 ICntrl=       0 IOpCl=  0
         NMat0=    1 NMatS0=    1 NMatT0=    0 NMatD0=    1 NMtDS0=    0 NMtDT0=    0
         I1Cent=           0 NGrid=           0.
 Symmetry not used in FoFCou.
 E= -612.629260226013    
 DIIS: error= 2.70D-03 at cycle   1 NSaved=   1.
 NSaved= 1 IEnMin= 1 EnMin= -612.629260226013     IErMin= 1 ErrMin= 2.70D-03
 ErrMax= 2.70D-03 EMaxC= 1.00D-01 BMatC= 2.43D-03 BMatP= 2.43D-03
 IDIUse=3 WtCom= 9.73D-01 WtEn= 2.70D-02
 Coeff-Com:  0.100D+01
 Coeff-En:   0.100D+01
 Coeff:      0.100D+01
 Gap=     0.671 Goal=   None    Shift=    0.000
 GapD=    0.671 DampG=2.000 DampE=1.000 DampFc=2.0000 IDamp=-1.
 RMSDP=2.68D-04 MaxDP=1.16D-02              OVMax= 3.92D-03

 Cycle   2  Pass 1  IDiag  1:
 RMSU=  1.88D-04    CP:  1.00D+00
 E= -612.631001202638     Delta-E=       -0.001740976625 Rises=F Damp=F
 DIIS: error= 6.03D-04 at cycle   2 NSaved=   2.
 NSaved= 2 IEnMin= 2 EnMin= -612.631001202638     IErMin= 2 ErrMin= 6.03D-04
 ErrMax= 6.03D-04 EMaxC= 1.00D-01 BMatC= 8.40D-05 BMatP= 2.43D-03
 IDIUse=3 WtCom= 9.94D-01 WtEn= 6.03D-03
 Coeff-Com: -0.372D-01 0.104D+01
 Coeff-En:   0.000D+00 0.100D+01
 Coeff:     -0.370D-01 0.104D+01
 Gap=     0.671 Goal=   None    Shift=    0.000
 RMSDP=4.99D-05 MaxDP=1.55D-03 DE=-1.74D-03 OVMax= 1.50D-03

 Cycle   3  Pass 1  IDiag  1:
 RMSU=  2.53D-05    CP:  1.00D+00  1.12D+00
 E= -612.631065308455     Delta-E=       -0.000064105817 Rises=F Damp=F
 DIIS: error= 2.17D-04 at cycle   3 NSaved=   3.
 NSaved= 3 IEnMin= 3 EnMin= -612.631065308455     IErMin= 3 ErrMin= 2.17D-04
 ErrMax= 2.17D-04 EMaxC= 1.00D-01 BMatC= 1.67D-05 BMatP= 8.40D-05
 IDIUse=3 WtCom= 9.98D-01 WtEn= 2.17D-03
 Coeff-Com: -0.449D-01 0.305D+00 0.740D+00
 Coeff-En:   0.000D+00 0.000D+00 0.100D+01
 Coeff:     -0.448D-01 0.304D+00 0.741D+00
 Gap=     0.671 Goal=   None    Shift=    0.000
 RMSDP=9.37D-06 MaxDP=6.11D-04 DE=-6.41D-05 OVMax= 5.42D-04

 Cycle   4  Pass 1  IDiag  1:
 RMSU=  4.72D-06    CP:  1.00D+00  1.14D+00  8.47D-01
 E= -612.631078557301     Delta-E=       -0.000013248846 Rises=F Damp=F
 DIIS: error= 2.17D-05 at cycle   4 NSaved=   4.
 NSaved= 4 IEnMin= 4 EnMin= -612.631078557301     IErMin= 4 ErrMin= 2.17D-05
 ErrMax= 2.17D-05 EMaxC= 1.00D-01 BMatC= 1.60D-07 BMatP= 1.67D-05
 IDIUse=1 WtCom= 1.00D+00 WtEn= 0.00D+00
 Coeff-Com:  0.848D-04-0.198D-01 0.581D-02 0.101D+01
 Coeff:      0.848D-04-0.198D-01 0.581D-02 0.101D+01
 Gap=     0.671 Goal=   None    Shift=    0.000
 RMSDP=1.88D-06 MaxDP=8.30D-05 DE=-1.32D-05 OVMax= 8.18D-05

 Cycle   5  Pass 1  IDiag  1:
 RMSU=  1.01D-06    CP:  1.00D+00  1.14D+00  8.73D-01  1.09D+00
 E= -612.631078745138     Delta-E=       -0.000000187837 Rises=F Damp=F
 DIIS: error= 7.69D-06 at cycle   5 NSaved=   5.
 NSaved= 5 IEnMin= 5 EnMin= -612.631078745138     IErMin= 5 ErrMin= 7.69D-06
 ErrMax= 7.69D-06 EMaxC= 1.00D-01 BMatC= 1.73D-08 BMatP= 1.60D-07
 IDIUse=1 WtCom= 1.00D+00 WtEn= 0.00D+00
 Coeff-Com:  0.245D-02-0.200D-01-0.397D-01 0.174D+00 0.883D+00
 Coeff:      0.245D-02-0.200D-01-0.397D-01 0.174D+00 0.883D+00
 Gap=     0.671 Goal=   None    Shift=    0.000
 RMSDP=5.74D-07 MaxDP=2.39D-05 DE=-1.88D-07 OVMax= 2.28D-05

 Cycle   6  Pass 1  IDiag  1:
 RMSU=  2.81D-07    CP:  1.00D+00  1.14D+00  8.78D-01  1.14D+00  9.65D-01
 E= -612.631078766587     Delta-E=       -0.000000021449 Rises=F Damp=F
 DIIS: error= 2.17D-06 at cycle   6 NSaved=   6.
 NSaved= 6 IEnMin= 6 EnMin= -612.631078766587     IErMin= 6 ErrMin= 2.17D-06
 ErrMax= 2.17D-06 EMaxC= 1.00D-01 BMatC= 9.55D-10 BMatP= 1.73D-08
 IDIUse=1 WtCom= 1.00D+00 WtEn= 0.00D+00
 Coeff-Com:  0.554D-04 0.681D-03-0.364D-03-0.615D-01-0.114D-03 0.106D+01
 Coeff:      0.554D-04 0.681D-03-0.364D-03-0.615D-01-0.114D-03 0.106D+01
 Gap=     0.671 Goal=   None    Shift=    0.000
 RMSDP=1.74D-07 MaxDP=9.63D-06 DE=-2.14D-08 OVMax= 9.45D-06

 Cycle   7  Pass 1  IDiag  1:
 RMSU=  6.83D-08    CP:  1.00D+00  1.14D+00  8.79D-01  1.14D+00  1.04D+00
                    CP:  1.24D+00
 E= -612.631078768314     Delta-E=       -0.000000001727 Rises=F Damp=F
 DIIS: error= 7.02D-07 at cycle   7 NSaved=   7.
 NSaved= 7 IEnMin= 7 EnMin= -612.631078768314     IErMin= 7 ErrMin= 7.02D-07
 ErrMax= 7.02D-07 EMaxC= 1.00D-01 BMatC= 9.25D-11 BMatP= 9.55D-10
 IDIUse=1 WtCom= 1.00D+00 WtEn= 0.00D+00
 Coeff-Com: -0.145D-03 0.130D-02 0.262D-02-0.184D-01-0.606D-01 0.127D+00
 Coeff-Com:  0.948D+00
 Coeff:     -0.145D-03 0.130D-02 0.262D-02-0.184D-01-0.606D-01 0.127D+00
 Coeff:      0.948D+00
 Gap=     0.671 Goal=   None    Shift=    0.000
 RMSDP=5.24D-08 MaxDP=2.72D-06 DE=-1.73D-09 OVMax= 2.88D-06

 Cycle   8  Pass 1  IDiag  1:
 RMSU=  2.18D-08    CP:  1.00D+00  1.14D+00  8.79D-01  1.14D+00  1.05D+00
                    CP:  1.33D+00  1.10D+00
 E= -612.631078768471     Delta-E=       -0.000000000157 Rises=F Damp=F
 DIIS: error= 1.89D-07 at cycle   8 NSaved=   8.
 NSaved= 8 IEnMin= 8 EnMin= -612.631078768471     IErMin= 8 ErrMin= 1.89D-07
 ErrMax= 1.89D-07 EMaxC= 1.00D-01 BMatC= 8.52D-12 BMatP= 9.25D-11
 IDIUse=1 WtCom= 1.00D+00 WtEn= 0.00D+00
 Coeff-Com: -0.272D-04 0.101D-03 0.387D-03 0.467D-02-0.801D-02-0.101D+00
 Coeff-Com:  0.980D-01 0.101D+01
 Coeff:     -0.272D-04 0.101D-03 0.387D-03 0.467D-02-0.801D-02-0.101D+00
 Coeff:      0.980D-01 0.101D+01
 Gap=     0.671 Goal=   None    Shift=    0.000
 RMSDP=1.87D-08 MaxDP=7.21D-07 DE=-1.57D-10 OVMax= 8.85D-07

 Cycle   9  Pass 1  IDiag  1:
 RMSU=  5.64D-09    CP:  1.00D+00  1.14D+00  8.79D-01  1.14D+00  1.05D+00
                    CP:  1.36D+00  1.23D+00  1.16D+00
 E= -612.631078768474     Delta-E=       -0.000000000003 Rises=F Damp=F
 DIIS: error= 3.27D-08 at cycle   9 NSaved=   9.
 NSaved= 9 IEnMin= 9 EnMin= -612.631078768474     IErMin= 9 ErrMin= 3.27D-08
 ErrMax= 3.27D-08 EMaxC= 1.00D-01 BMatC= 3.69D-13 BMatP= 8.52D-12
 IDIUse=1 WtCom= 1.00D+00 WtEn= 0.00D+00
 Coeff-Com:  0.889D-05-0.693D-04-0.200D-03 0.632D-03 0.394D-02 0.753D-03
 Coeff-Com: -0.609D-01-0.665D-01 0.112D+01
 Coeff:      0.889D-05-0.693D-04-0.200D-03 0.632D-03 0.394D-02 0.753D-03
 Coeff:     -0.609D-01-0.665D-01 0.112D+01
 Gap=     0.671 Goal=   None    Shift=    0.000
 RMSDP=4.70D-09 MaxDP=1.40D-07 DE=-3.18D-12 OVMax= 1.69D-07

 SCF Done:  E(RHF) =  -612.631078768     A.U. after    9 cycles
             Convg  =    0.4697D-08             -V/T =  2.0010
 KE= 6.120225973658D+02 PE=-3.168103219442D+03 EE= 1.045288949340D+03
 Leave Link  502 at Fri Mar 17 16:26:00 2023, MaxMem=   33554432 cpu:     129.7
 (Enter /share/apps/g09/l601.exe)
 Copying SCF densities to generalized density rwf, IOpCl= 0 IROHF=0.

 **********************************************************************

            Population analysis using the SCF density.

 **********************************************************************

 Orbital symmetries:
 BldTbl:  Degeneracy threshold= 1.00D-02
       Occupied  (A) (A) (A) (A) (A) (A) (A) (A) (A) (A) (A) (A)
                 (A) (A) (A) (A) (A) (A) (A) (A) (A) (A) (A) (A)
                 (A) (A) (A) (A) (A) (A) (A) (A) (A) (A) (A) (A)
                 (A) (A) (A) (A) (A) (A) (A) (A) (A) (A) (A) (A)
                 (A) (A) (A) (A) (A) (A) (A) (A) (A)
       Virtual   (A) (A) (A) (A) (A) (A) (A) (A) (A) (A) (A) (A)
                 (A) (A) (A) (A) (A) (A) (A) (A) (A) (A) (A) (A)
                 (A) (A) (A) (A) (A) (A) (A) (A) (A) (A) (A) (A)
                 (A) (A) (A) (A) (A) (A) (A) (A) (A) (A) (A) (A)
                 (A) (A) (A) (A) (A) (A) (A) (A) (A) (A) (A) (A)
                 (A) (A) (A) (A) (A) (A) (A) (A) (A) (A) (A) (A)
                 (A) (A) (A) (A) (A) (A) (A) (A) (A) (A) (A) (A)
                 (A) (A) (A) (A) (A) (A) (A) (A) (A) (A) (A) (A)
                 (A) (A) (A) (A) (A) (A) (A) (A) (A) (A) (A) (A)
                 (A) (A) (A) (A) (A) (A) (A) (A) (A) (A) (A) (A)
                 (A) (A) (A) (A) (A) (A) (A) (A) (A) (A) (A) (A)
                 (A) (A) (A) (A) (A) (A) (A) (A) (A) (A) (A) (A)
                 (A) (A) (A) (A) (A) (A) (A) (A) (A) (A) (A) (A)
                 (A) (A) (A) (A) (A) (A) (A) (A) (A) (A) (A) (A)
                 (A) (A) (A) (A) (A) (A) (A) (A) (A) (A) (A) (A)
                 (A) (A) (A) (A) (A) (A) (A) (A) (A) (A) (A) (A)
                 (A) (A) (A) (A) (A) (A) (A) (A) (A) (A) (A) (A)
                 (A) (A) (A) (A) (A) (A) (A) (A) (A)
 The electronic state is 1-A.
 Alpha  occ. eigenvalues --  -16.12902 -16.12902 -16.10674 -16.10674 -11.72511
 Alpha  occ. eigenvalues --  -11.72511 -11.71952 -11.71952 -11.71487 -11.71487
 Alpha  occ. eigenvalues --  -11.67870 -11.67870 -11.66782 -11.66727  -1.75616
 Alpha  occ. eigenvalues --   -1.75564  -1.72915  -1.72915  -1.52931  -1.51057
 Alpha  occ. eigenvalues --   -1.49362  -1.43242  -1.37966  -1.37150  -1.33125
 Alpha  occ. eigenvalues --   -1.29366  -1.28328  -1.25158  -1.22650  -1.22519
 Alpha  occ. eigenvalues --   -1.18999  -1.18995  -1.17310  -1.17256  -1.11810
 Alpha  occ. eigenvalues --   -1.11481  -1.10297  -1.09230  -1.08581  -1.07737
 Alpha  occ. eigenvalues --   -1.06827  -1.06042  -1.05773  -1.02603  -0.99375
 Alpha  occ. eigenvalues --   -0.99284  -0.98643  -0.98634  -0.96664  -0.96097
 Alpha  occ. eigenvalues --   -0.95514  -0.95501  -0.93584  -0.93505  -0.93170
 Alpha  occ. eigenvalues --   -0.92391  -0.91673
 Alpha virt. eigenvalues --   -0.24554  -0.24273  -0.22293  -0.22288  -0.19359
 Alpha virt. eigenvalues --   -0.18883  -0.18542  -0.18459  -0.17786  -0.17176
 Alpha virt. eigenvalues --   -0.16215  -0.14925  -0.14805  -0.14529  -0.13827
 Alpha virt. eigenvalues --   -0.13529  -0.12291  -0.10795  -0.10743  -0.10709
 Alpha virt. eigenvalues --   -0.10399  -0.09386  -0.08926  -0.08541  -0.08505
 Alpha virt. eigenvalues --   -0.07624  -0.07587  -0.07303  -0.07063  -0.06827
 Alpha virt. eigenvalues --   -0.06664  -0.06217  -0.05942  -0.05387  -0.05223
 Alpha virt. eigenvalues --   -0.04562  -0.02789  -0.02628  -0.02074  -0.00508
 Alpha virt. eigenvalues --   -0.00052   0.05568   0.06170   0.22123   0.24026
 Alpha virt. eigenvalues --    0.25249   0.26164   0.28919   0.29657   0.29881
 Alpha virt. eigenvalues --    0.30255   0.31052   0.31612   0.32219   0.33033
 Alpha virt. eigenvalues --    0.33914   0.35836   0.38510   0.38840   0.39677
 Alpha virt. eigenvalues --    0.40475   0.42102   0.45230   0.46583   0.47485
 Alpha virt. eigenvalues --    0.49744   0.50707   0.50874   0.51655   0.52465
 Alpha virt. eigenvalues --    0.55178   0.58389   0.58795   0.60615   0.61271
 Alpha virt. eigenvalues --    0.63466   0.64355   0.64812   0.64953   0.67252
 Alpha virt. eigenvalues --    0.68223   0.68406   0.68985   0.69913   0.70029
 Alpha virt. eigenvalues --    0.70558   0.70565   0.70945   0.71532   0.72207
 Alpha virt. eigenvalues --    0.72240   0.73541   0.74265   0.74683   0.75435
 Alpha virt. eigenvalues --    0.75575   0.76063   0.76111   0.76338   0.77409
 Alpha virt. eigenvalues --    0.77490   0.78016   0.78391   0.79074   0.79153
 Alpha virt. eigenvalues --    0.79292   0.79498   0.80779   0.81772   0.81820
 Alpha virt. eigenvalues --    0.83512   0.88041   0.88269   0.92307   0.99765
 Alpha virt. eigenvalues --    1.00994   1.07578   1.11978   1.13299   1.15841
 Alpha virt. eigenvalues --    1.18571   1.20396   1.22038   1.22977   1.27406
 Alpha virt. eigenvalues --    1.27702   1.28691   1.31692   1.32212   1.34107
 Alpha virt. eigenvalues --    1.41932   1.42433   1.43784   1.46885   1.50418
 Alpha virt. eigenvalues --    1.51224   1.54303   1.57678   1.61158   1.65640
 Alpha virt. eigenvalues --    1.70163   1.71369   1.71439   1.72377   1.73675
 Alpha virt. eigenvalues --    1.73686   1.77961   1.78474   1.79558   1.80969
 Alpha virt. eigenvalues --    1.81405   1.81930   1.82379   1.84563   1.84586
 Alpha virt. eigenvalues --    1.84985   1.86605   1.87856   1.87971   1.88686
 Alpha virt. eigenvalues --    1.90851   1.91014   1.92087   1.93999   1.94096
 Alpha virt. eigenvalues --    1.97031   1.99210   2.10946   2.11427   2.11646
 Alpha virt. eigenvalues --    2.17488   2.18048   2.19094   2.19883   2.21403
 Alpha virt. eigenvalues --    2.25934   2.27595   2.27658   2.30064   2.30845
 Alpha virt. eigenvalues --    2.31785   2.32845   2.33206   2.36508   2.37371
 Alpha virt. eigenvalues --    2.40894   2.44019   2.44054   2.46209   2.47765
 Alpha virt. eigenvalues --    2.50389   2.55467   2.57087   2.57441   2.63353
 Alpha virt. eigenvalues --    2.68695   2.72615   2.76657   2.77394   3.74703
 Alpha virt. eigenvalues --    3.74716   3.86803   3.86828   4.15664   4.18300
 Alpha virt. eigenvalues --    4.19080   4.27780   4.30150   4.30246   4.36664
 Alpha virt. eigenvalues --    4.46470   4.48016   4.53450
          Condensed to atoms (all electrons):
              1          2          3          4          5          6
     1  N    6.889715   0.174596  -0.051495   0.002387  -0.000024   0.000000
     2  C    0.174596   5.067847   0.323077  -0.040858   0.002227  -0.000040
     3  C   -0.051495   0.323077   5.184841   0.329825  -0.044551   0.002785
     4  C    0.002387  -0.040858   0.329825   5.077590   0.159958  -0.039069
     5  N   -0.000024   0.002227  -0.044551   0.159958   7.099122   0.153348
     6  C    0.000000  -0.000040   0.002785  -0.039069   0.153348   5.087402
     7  C    0.000000   0.000001  -0.000084   0.002843  -0.045944   0.330265
     8  C    0.000000   0.000000   0.000001  -0.000047   0.002326  -0.041575
     9  C    0.000000   0.000000   0.000000   0.000000  -0.000037   0.003582
    10  N    0.000000   0.000000   0.000000   0.000000   0.000000  -0.000037
    11  C    0.000000   0.000000   0.000000   0.000000   0.000000   0.000000
    12  C    0.000000   0.000000   0.000000   0.000000   0.000000   0.000000
    13  C    0.000000   0.000000   0.000000   0.000000   0.000000   0.000000
    14  N    0.000000   0.000000   0.000000   0.000000   0.000000   0.000000
    15  H    0.304542  -0.017386   0.002737  -0.000039   0.000000   0.000000
    16  H    0.302156  -0.014101  -0.001736  -0.000036  -0.000001   0.000000
    17  H    0.302156  -0.014101  -0.001736  -0.000036  -0.000001   0.000000
    18  H   -0.033466   0.400425  -0.034169  -0.001737  -0.000028  -0.000001
    19  H   -0.033466   0.400425  -0.034169  -0.001737  -0.000028  -0.000001
    20  H   -0.001112  -0.031913   0.391740  -0.033068  -0.001603  -0.000065
    21  H   -0.001112  -0.031913   0.391740  -0.033068  -0.001603  -0.000065
    22  H   -0.000029  -0.001189  -0.033470   0.401047  -0.035052  -0.001155
    23  H   -0.000029  -0.001189  -0.033470   0.401047  -0.035052  -0.001155
    24  H   -0.000001  -0.000052  -0.001390  -0.017577   0.305083  -0.017419
    25  H   -0.000001  -0.000052  -0.001390  -0.017577   0.305083  -0.017419
    26  H    0.000000  -0.000001  -0.000046  -0.001291  -0.035559   0.401240
    27  H    0.000000  -0.000001  -0.000046  -0.001291  -0.035559   0.401240
    28  H    0.000000   0.000000   0.000000  -0.000074  -0.001571  -0.037006
    29  H    0.000000   0.000000   0.000000  -0.000074  -0.001571  -0.037006
    30  H    0.000000   0.000000   0.000000  -0.000001  -0.000014  -0.003266
    31  H    0.000000   0.000000   0.000000  -0.000001  -0.000014  -0.003266
    32  H    0.000000   0.000000   0.000000   0.000000   0.000000  -0.000047
    33  H    0.000000   0.000000   0.000000   0.000000   0.000000  -0.000047
    34  H    0.000000   0.000000   0.000000   0.000000   0.000000  -0.000001
    35  H    0.000000   0.000000   0.000000   0.000000   0.000000  -0.000001
    36  H    0.000000   0.000000   0.000000   0.000000   0.000000   0.000000
    37  H    0.000000   0.000000   0.000000   0.000000   0.000000   0.000000
    38  H    0.000000   0.000000   0.000000   0.000000   0.000000   0.000000
    39  H    0.000000   0.000000   0.000000   0.000000   0.000000   0.000000
    40  H    0.000000   0.000000   0.000000   0.000000   0.000000   0.000000
    41  H    0.000000   0.000000   0.000000   0.000000   0.000000   0.000000
    42  H    0.000000   0.000000   0.000000   0.000000   0.000000   0.000000
    43  H    0.000000   0.000000   0.000000   0.000000   0.000000   0.000000
    44  H    0.000000   0.000000   0.000000   0.000000   0.000000   0.000000
              7          8          9         10         11         12
     1  N    0.000000   0.000000   0.000000   0.000000   0.000000   0.000000
     2  C    0.000001   0.000000   0.000000   0.000000   0.000000   0.000000
     3  C   -0.000084   0.000001   0.000000   0.000000   0.000000   0.000000
     4  C    0.002843  -0.000047   0.000000   0.000000   0.000000   0.000000
     5  N   -0.045944   0.002326  -0.000037   0.000000   0.000000   0.000000
     6  C    0.330265  -0.041575   0.003582  -0.000037   0.000000   0.000000
     7  C    5.130042   0.338724  -0.041575   0.002326  -0.000047   0.000001
     8  C    0.338724   5.130042   0.330265  -0.045944   0.002843  -0.000084
     9  C   -0.041575   0.330265   5.087402   0.153348  -0.039069   0.002785
    10  N    0.002326  -0.045944   0.153348   7.099122   0.159958  -0.044551
    11  C   -0.000047   0.002843  -0.039069   0.159958   5.077590   0.329825
    12  C    0.000001  -0.000084   0.002785  -0.044551   0.329825   5.184841
    13  C    0.000000   0.000001  -0.000040   0.002227  -0.040858   0.323077
    14  N    0.000000   0.000000   0.000000  -0.000024   0.002387  -0.051495
    15  H    0.000000   0.000000   0.000000   0.000000   0.000000   0.000000
    16  H    0.000000   0.000000   0.000000   0.000000   0.000000   0.000000
    17  H    0.000000   0.000000   0.000000   0.000000   0.000000   0.000000
    18  H    0.000000   0.000000   0.000000   0.000000   0.000000   0.000000
    19  H    0.000000   0.000000   0.000000   0.000000   0.000000   0.000000
    20  H   -0.000001   0.000000   0.000000   0.000000   0.000000   0.000000
    21  H   -0.000001   0.000000   0.000000   0.000000   0.000000   0.000000
    22  H   -0.000050  -0.000002   0.000000   0.000000   0.000000   0.000000
    23  H   -0.000050  -0.000002   0.000000   0.000000   0.000000   0.000000
    24  H   -0.001109  -0.000064  -0.000001   0.000000   0.000000   0.000000
    25  H   -0.001109  -0.000064  -0.000001   0.000000   0.000000   0.000000
    26  H   -0.032790  -0.001235  -0.000047   0.000000   0.000000   0.000000
    27  H   -0.032790  -0.001235  -0.000047   0.000000   0.000000   0.000000
    28  H    0.396619  -0.033045  -0.003266  -0.000014  -0.000001   0.000000
    29  H    0.396619  -0.033045  -0.003266  -0.000014  -0.000001   0.000000
    30  H   -0.033045   0.396619  -0.037006  -0.001571  -0.000074   0.000000
    31  H   -0.033045   0.396619  -0.037006  -0.001571  -0.000074   0.000000
    32  H   -0.001235  -0.032790   0.401240  -0.035559  -0.001291  -0.000046
    33  H   -0.001235  -0.032790   0.401240  -0.035559  -0.001291  -0.000046
    34  H   -0.000064  -0.001109  -0.017419   0.305083  -0.017577  -0.001390
    35  H   -0.000064  -0.001109  -0.017419   0.305083  -0.017577  -0.001390
    36  H   -0.000002  -0.000050  -0.001155  -0.035052   0.401047  -0.033470
    37  H   -0.000002  -0.000050  -0.001155  -0.035052   0.401047  -0.033470
    38  H    0.000000  -0.000001  -0.000065  -0.001603  -0.033068   0.391740
    39  H    0.000000  -0.000001  -0.000065  -0.001603  -0.033068   0.391740
    40  H    0.000000   0.000000  -0.000001  -0.000028  -0.001737  -0.034169
    41  H    0.000000   0.000000  -0.000001  -0.000028  -0.001737  -0.034169
    42  H    0.000000   0.000000   0.000000  -0.000001  -0.000036  -0.001736
    43  H    0.000000   0.000000   0.000000   0.000000  -0.000039   0.002737
    44  H    0.000000   0.000000   0.000000  -0.000001  -0.000036  -0.001736
             13         14         15         16         17         18
     1  N    0.000000   0.000000   0.304542   0.302156   0.302156  -0.033466
     2  C    0.000000   0.000000  -0.017386  -0.014101  -0.014101   0.400425
     3  C    0.000000   0.000000   0.002737  -0.001736  -0.001736  -0.034169
     4  C    0.000000   0.000000  -0.000039  -0.000036  -0.000036  -0.001737
     5  N    0.000000   0.000000   0.000000  -0.000001  -0.000001  -0.000028
     6  C    0.000000   0.000000   0.000000   0.000000   0.000000  -0.000001
     7  C    0.000000   0.000000   0.000000   0.000000   0.000000   0.000000
     8  C    0.000001   0.000000   0.000000   0.000000   0.000000   0.000000
     9  C   -0.000040   0.000000   0.000000   0.000000   0.000000   0.000000
    10  N    0.002227  -0.000024   0.000000   0.000000   0.000000   0.000000
    11  C   -0.040858   0.002387   0.000000   0.000000   0.000000   0.000000
    12  C    0.323077  -0.051495   0.000000   0.000000   0.000000   0.000000
    13  C    5.067847   0.174596   0.000000   0.000000   0.000000   0.000000
    14  N    0.174596   6.889715   0.000000   0.000000   0.000000   0.000000
    15  H    0.000000   0.000000   0.228394  -0.007910  -0.007910  -0.001755
    16  H    0.000000   0.000000  -0.007910   0.245898  -0.008747  -0.001544
    17  H    0.000000   0.000000  -0.007910  -0.008747   0.245898   0.002130
    18  H    0.000000   0.000000  -0.001755  -0.001544   0.002130   0.397680
    19  H    0.000000   0.000000  -0.001755   0.002130  -0.001544  -0.016242
    20  H    0.000000   0.000000  -0.000070  -0.000004   0.001574   0.002466
    21  H    0.000000   0.000000  -0.000070   0.001574  -0.000004  -0.001443
    22  H    0.000000   0.000000   0.000000   0.000005   0.000001   0.000928
    23  H    0.000000   0.000000   0.000000   0.000001   0.000005   0.000219
    24  H    0.000000   0.000000   0.000000   0.000000   0.000000   0.000000
    25  H    0.000000   0.000000   0.000000   0.000000   0.000000   0.000007
    26  H    0.000000   0.000000   0.000000   0.000000   0.000000  -0.000001
    27  H    0.000000   0.000000   0.000000   0.000000   0.000000   0.000000
    28  H    0.000000   0.000000   0.000000   0.000000   0.000000   0.000000
    29  H    0.000000   0.000000   0.000000   0.000000   0.000000   0.000000
    30  H    0.000000   0.000000   0.000000   0.000000   0.000000   0.000000
    31  H    0.000000   0.000000   0.000000   0.000000   0.000000   0.000000
    32  H   -0.000001   0.000000   0.000000   0.000000   0.000000   0.000000
    33  H   -0.000001   0.000000   0.000000   0.000000   0.000000   0.000000
    34  H   -0.000052  -0.000001   0.000000   0.000000   0.000000   0.000000
    35  H   -0.000052  -0.000001   0.000000   0.000000   0.000000   0.000000
    36  H   -0.001189  -0.000029   0.000000   0.000000   0.000000   0.000000
    37  H   -0.001189  -0.000029   0.000000   0.000000   0.000000   0.000000
    38  H   -0.031913  -0.001112   0.000000   0.000000   0.000000   0.000000
    39  H   -0.031913  -0.001112   0.000000   0.000000   0.000000   0.000000
    40  H    0.400425  -0.033466   0.000000   0.000000   0.000000   0.000000
    41  H    0.400425  -0.033466   0.000000   0.000000   0.000000   0.000000
    42  H   -0.014101   0.302156   0.000000   0.000000   0.000000   0.000000
    43  H   -0.017386   0.304542   0.000000   0.000000   0.000000   0.000000
    44  H   -0.014101   0.302156   0.000000   0.000000   0.000000   0.000000
             19         20         21         22         23         24
     1  N   -0.033466  -0.001112  -0.001112  -0.000029  -0.000029  -0.000001
     2  C    0.400425  -0.031913  -0.031913  -0.001189  -0.001189  -0.000052
     3  C   -0.034169   0.391740   0.391740  -0.033470  -0.033470  -0.001390
     4  C   -0.001737  -0.033068  -0.033068   0.401047   0.401047  -0.017577
     5  N   -0.000028  -0.001603  -0.001603  -0.035052  -0.035052   0.305083
     6  C   -0.000001  -0.000065  -0.000065  -0.001155  -0.001155  -0.017419
     7  C    0.000000  -0.000001  -0.000001  -0.000050  -0.000050  -0.001109
     8  C    0.000000   0.000000   0.000000  -0.000002  -0.000002  -0.000064
     9  C    0.000000   0.000000   0.000000   0.000000   0.000000  -0.000001
    10  N    0.000000   0.000000   0.000000   0.000000   0.000000   0.000000
    11  C    0.000000   0.000000   0.000000   0.000000   0.000000   0.000000
    12  C    0.000000   0.000000   0.000000   0.000000   0.000000   0.000000
    13  C    0.000000   0.000000   0.000000   0.000000   0.000000   0.000000
    14  N    0.000000   0.000000   0.000000   0.000000   0.000000   0.000000
    15  H   -0.001755  -0.000070  -0.000070   0.000000   0.000000   0.000000
    16  H    0.002130  -0.000004   0.001574   0.000005   0.000001   0.000000
    17  H   -0.001544   0.001574  -0.000004   0.000001   0.000005   0.000000
    18  H   -0.016242   0.002466  -0.001443   0.000928   0.000219   0.000000
    19  H    0.397680  -0.001443   0.002466   0.000219   0.000928   0.000007
    20  H   -0.001443   0.452678  -0.022047   0.002504  -0.001451   0.001897
    21  H    0.002466  -0.022047   0.452678  -0.001451   0.002504   0.000031
    22  H    0.000219   0.002504  -0.001451   0.407817  -0.017344   0.002526
    23  H    0.000928  -0.001451   0.002504  -0.017344   0.407817  -0.001811
    24  H    0.000007   0.001897   0.000031   0.002526  -0.001811   0.275338
    25  H    0.000000   0.000031   0.001897  -0.001811   0.002526  -0.012792
    26  H    0.000000  -0.000005   0.000015   0.001293   0.000041   0.002592
    27  H   -0.000001   0.000015  -0.000005   0.000041   0.001293  -0.001874
    28  H    0.000000  -0.000002   0.000001  -0.000005   0.000015   0.002147
    29  H    0.000000   0.000001  -0.000002   0.000015  -0.000005   0.000019
    30  H    0.000000   0.000000   0.000000  -0.000002   0.000000   0.000001
    31  H    0.000000   0.000000   0.000000   0.000000  -0.000002   0.000009
    32  H    0.000000   0.000000   0.000000   0.000000   0.000000  -0.000001
    33  H    0.000000   0.000000   0.000000   0.000000   0.000000   0.000000
    34  H    0.000000   0.000000   0.000000   0.000000   0.000000   0.000000
    35  H    0.000000   0.000000   0.000000   0.000000   0.000000   0.000000
    36  H    0.000000   0.000000   0.000000   0.000000   0.000000   0.000000
    37  H    0.000000   0.000000   0.000000   0.000000   0.000000   0.000000
    38  H    0.000000   0.000000   0.000000   0.000000   0.000000   0.000000
    39  H    0.000000   0.000000   0.000000   0.000000   0.000000   0.000000
    40  H    0.000000   0.000000   0.000000   0.000000   0.000000   0.000000
    41  H    0.000000   0.000000   0.000000   0.000000   0.000000   0.000000
    42  H    0.000000   0.000000   0.000000   0.000000   0.000000   0.000000
    43  H    0.000000   0.000000   0.000000   0.000000   0.000000   0.000000
    44  H    0.000000   0.000000   0.000000   0.000000   0.000000   0.000000
             25         26         27         28         29         30
     1  N   -0.000001   0.000000   0.000000   0.000000   0.000000   0.000000
     2  C   -0.000052  -0.000001  -0.000001   0.000000   0.000000   0.000000
     3  C   -0.001390  -0.000046  -0.000046   0.000000   0.000000   0.000000
     4  C   -0.017577  -0.001291  -0.001291  -0.000074  -0.000074  -0.000001
     5  N    0.305083  -0.035559  -0.035559  -0.001571  -0.001571  -0.000014
     6  C   -0.017419   0.401240   0.401240  -0.037006  -0.037006  -0.003266
     7  C   -0.001109  -0.032790  -0.032790   0.396619   0.396619  -0.033045
     8  C   -0.000064  -0.001235  -0.001235  -0.033045  -0.033045   0.396619
     9  C   -0.000001  -0.000047  -0.000047  -0.003266  -0.003266  -0.037006
    10  N    0.000000   0.000000   0.000000  -0.000014  -0.000014  -0.001571
    11  C    0.000000   0.000000   0.000000  -0.000001  -0.000001  -0.000074
    12  C    0.000000   0.000000   0.000000   0.000000   0.000000   0.000000
    13  C    0.000000   0.000000   0.000000   0.000000   0.000000   0.000000
    14  N    0.000000   0.000000   0.000000   0.000000   0.000000   0.000000
    15  H    0.000000   0.000000   0.000000   0.000000   0.000000   0.000000
    16  H    0.000000   0.000000   0.000000   0.000000   0.000000   0.000000
    17  H    0.000000   0.000000   0.000000   0.000000   0.000000   0.000000
    18  H    0.000007  -0.000001   0.000000   0.000000   0.000000   0.000000
    19  H    0.000000   0.000000  -0.000001   0.000000   0.000000   0.000000
    20  H    0.000031  -0.000005   0.000015  -0.000002   0.000001   0.000000
    21  H    0.001897   0.000015  -0.000005   0.000001  -0.000002   0.000000
    22  H   -0.001811   0.001293   0.000041  -0.000005   0.000015  -0.000002
    23  H    0.002526   0.000041   0.001293   0.000015  -0.000005   0.000000
    24  H   -0.012792   0.002592  -0.001874   0.002147   0.000019   0.000001
    25  H    0.275338  -0.001874   0.002592   0.000019   0.002147   0.000009
    26  H   -0.001874   0.415571  -0.018298   0.002675  -0.001672   0.001076
    27  H    0.002592  -0.018298   0.415571  -0.001672   0.002675   0.000263
    28  H    0.000019   0.002675  -0.001672   0.467674  -0.023343   0.002995
    29  H    0.002147  -0.001672   0.002675  -0.023343   0.467674  -0.001548
    30  H    0.000009   0.001076   0.000263   0.002995  -0.001548   0.467674
    31  H    0.000001   0.000263   0.001076  -0.001548   0.002995  -0.023343
    32  H    0.000000  -0.000003   0.000012   0.001076   0.000263   0.002675
    33  H   -0.000001   0.000012  -0.000003   0.000263   0.001076  -0.001672
    34  H    0.000000  -0.000001   0.000000   0.000001   0.000009   0.002147
    35  H    0.000000   0.000000  -0.000001   0.000009   0.000001   0.000019
    36  H    0.000000   0.000000   0.000000  -0.000002   0.000000  -0.000005
    37  H    0.000000   0.000000   0.000000   0.000000  -0.000002   0.000015
    38  H    0.000000   0.000000   0.000000   0.000000   0.000000  -0.000002
    39  H    0.000000   0.000000   0.000000   0.000000   0.000000   0.000001
    40  H    0.000000   0.000000   0.000000   0.000000   0.000000   0.000000
    41  H    0.000000   0.000000   0.000000   0.000000   0.000000   0.000000
    42  H    0.000000   0.000000   0.000000   0.000000   0.000000   0.000000
    43  H    0.000000   0.000000   0.000000   0.000000   0.000000   0.000000
    44  H    0.000000   0.000000   0.000000   0.000000   0.000000   0.000000
             31         32         33         34         35         36
     1  N    0.000000   0.000000   0.000000   0.000000   0.000000   0.000000
     2  C    0.000000   0.000000   0.000000   0.000000   0.000000   0.000000
     3  C    0.000000   0.000000   0.000000   0.000000   0.000000   0.000000
     4  C   -0.000001   0.000000   0.000000   0.000000   0.000000   0.000000
     5  N   -0.000014   0.000000   0.000000   0.000000   0.000000   0.000000
     6  C   -0.003266  -0.000047  -0.000047  -0.000001  -0.000001   0.000000
     7  C   -0.033045  -0.001235  -0.001235  -0.000064  -0.000064  -0.000002
     8  C    0.396619  -0.032790  -0.032790  -0.001109  -0.001109  -0.000050
     9  C   -0.037006   0.401240   0.401240  -0.017419  -0.017419  -0.001155
    10  N   -0.001571  -0.035559  -0.035559   0.305083   0.305083  -0.035052
    11  C   -0.000074  -0.001291  -0.001291  -0.017577  -0.017577   0.401047
    12  C    0.000000  -0.000046  -0.000046  -0.001390  -0.001390  -0.033470
    13  C    0.000000  -0.000001  -0.000001  -0.000052  -0.000052  -0.001189
    14  N    0.000000   0.000000   0.000000  -0.000001  -0.000001  -0.000029
    15  H    0.000000   0.000000   0.000000   0.000000   0.000000   0.000000
    16  H    0.000000   0.000000   0.000000   0.000000   0.000000   0.000000
    17  H    0.000000   0.000000   0.000000   0.000000   0.000000   0.000000
    18  H    0.000000   0.000000   0.000000   0.000000   0.000000   0.000000
    19  H    0.000000   0.000000   0.000000   0.000000   0.000000   0.000000
    20  H    0.000000   0.000000   0.000000   0.000000   0.000000   0.000000
    21  H    0.000000   0.000000   0.000000   0.000000   0.000000   0.000000
    22  H    0.000000   0.000000   0.000000   0.000000   0.000000   0.000000
    23  H   -0.000002   0.000000   0.000000   0.000000   0.000000   0.000000
    24  H    0.000009  -0.000001   0.000000   0.000000   0.000000   0.000000
    25  H    0.000001   0.000000  -0.000001   0.000000   0.000000   0.000000
    26  H    0.000263  -0.000003   0.000012  -0.000001   0.000000   0.000000
    27  H    0.001076   0.000012  -0.000003   0.000000  -0.000001   0.000000
    28  H   -0.001548   0.001076   0.000263   0.000001   0.000009  -0.000002
    29  H    0.002995   0.000263   0.001076   0.000009   0.000001   0.000000
    30  H   -0.023343   0.002675  -0.001672   0.002147   0.000019  -0.000005
    31  H    0.467674  -0.001672   0.002675   0.000019   0.002147   0.000015
    32  H   -0.001672   0.415571  -0.018298   0.002592  -0.001874   0.001293
    33  H    0.002675  -0.018298   0.415571  -0.001874   0.002592   0.000041
    34  H    0.000019   0.002592  -0.001874   0.275338  -0.012792   0.002526
    35  H    0.002147  -0.001874   0.002592  -0.012792   0.275338  -0.001811
    36  H    0.000015   0.001293   0.000041   0.002526  -0.001811   0.407817
    37  H   -0.000005   0.000041   0.001293  -0.001811   0.002526  -0.017344
    38  H    0.000001  -0.000005   0.000015   0.001897   0.000031   0.002504
    39  H   -0.000002   0.000015  -0.000005   0.000031   0.001897  -0.001451
    40  H    0.000000  -0.000001   0.000000   0.000000   0.000007   0.000928
    41  H    0.000000   0.000000  -0.000001   0.000007   0.000000   0.000219
    42  H    0.000000   0.000000   0.000000   0.000000   0.000000   0.000005
    43  H    0.000000   0.000000   0.000000   0.000000   0.000000   0.000000
    44  H    0.000000   0.000000   0.000000   0.000000   0.000000   0.000001
             37         38         39         40         41         42
     1  N    0.000000   0.000000   0.000000   0.000000   0.000000   0.000000
     2  C    0.000000   0.000000   0.000000   0.000000   0.000000   0.000000
     3  C    0.000000   0.000000   0.000000   0.000000   0.000000   0.000000
     4  C    0.000000   0.000000   0.000000   0.000000   0.000000   0.000000
     5  N    0.000000   0.000000   0.000000   0.000000   0.000000   0.000000
     6  C    0.000000   0.000000   0.000000   0.000000   0.000000   0.000000
     7  C   -0.000002   0.000000   0.000000   0.000000   0.000000   0.000000
     8  C   -0.000050  -0.000001  -0.000001   0.000000   0.000000   0.000000
     9  C   -0.001155  -0.000065  -0.000065  -0.000001  -0.000001   0.000000
    10  N   -0.035052  -0.001603  -0.001603  -0.000028  -0.000028  -0.000001
    11  C    0.401047  -0.033068  -0.033068  -0.001737  -0.001737  -0.000036
    12  C   -0.033470   0.391740   0.391740  -0.034169  -0.034169  -0.001736
    13  C   -0.001189  -0.031913  -0.031913   0.400425   0.400425  -0.014101
    14  N   -0.000029  -0.001112  -0.001112  -0.033466  -0.033466   0.302156
    15  H    0.000000   0.000000   0.000000   0.000000   0.000000   0.000000
    16  H    0.000000   0.000000   0.000000   0.000000   0.000000   0.000000
    17  H    0.000000   0.000000   0.000000   0.000000   0.000000   0.000000
    18  H    0.000000   0.000000   0.000000   0.000000   0.000000   0.000000
    19  H    0.000000   0.000000   0.000000   0.000000   0.000000   0.000000
    20  H    0.000000   0.000000   0.000000   0.000000   0.000000   0.000000
    21  H    0.000000   0.000000   0.000000   0.000000   0.000000   0.000000
    22  H    0.000000   0.000000   0.000000   0.000000   0.000000   0.000000
    23  H    0.000000   0.000000   0.000000   0.000000   0.000000   0.000000
    24  H    0.000000   0.000000   0.000000   0.000000   0.000000   0.000000
    25  H    0.000000   0.000000   0.000000   0.000000   0.000000   0.000000
    26  H    0.000000   0.000000   0.000000   0.000000   0.000000   0.000000
    27  H    0.000000   0.000000   0.000000   0.000000   0.000000   0.000000
    28  H    0.000000   0.000000   0.000000   0.000000   0.000000   0.000000
    29  H   -0.000002   0.000000   0.000000   0.000000   0.000000   0.000000
    30  H    0.000015  -0.000002   0.000001   0.000000   0.000000   0.000000
    31  H   -0.000005   0.000001  -0.000002   0.000000   0.000000   0.000000
    32  H    0.000041  -0.000005   0.000015  -0.000001   0.000000   0.000000
    33  H    0.001293   0.000015  -0.000005   0.000000  -0.000001   0.000000
    34  H   -0.001811   0.001897   0.000031   0.000000   0.000007   0.000000
    35  H    0.002526   0.000031   0.001897   0.000007   0.000000   0.000000
    36  H   -0.017344   0.002504  -0.001451   0.000928   0.000219   0.000005
    37  H    0.407817  -0.001451   0.002504   0.000219   0.000928   0.000001
    38  H   -0.001451   0.452678  -0.022047   0.002466  -0.001443  -0.000004
    39  H    0.002504  -0.022047   0.452678  -0.001443   0.002466   0.001574
    40  H    0.000219   0.002466  -0.001443   0.397680  -0.016242  -0.001544
    41  H    0.000928  -0.001443   0.002466  -0.016242   0.397680   0.002130
    42  H    0.000001  -0.000004   0.001574  -0.001544   0.002130   0.245898
    43  H    0.000000  -0.000070  -0.000070  -0.001755  -0.001755  -0.007910
    44  H    0.000005   0.001574  -0.000004   0.002130  -0.001544  -0.008747
             43         44
     1  N    0.000000   0.000000
     2  C    0.000000   0.000000
     3  C    0.000000   0.000000
     4  C    0.000000   0.000000
     5  N    0.000000   0.000000
     6  C    0.000000   0.000000
     7  C    0.000000   0.000000
     8  C    0.000000   0.000000
     9  C    0.000000   0.000000
    10  N    0.000000  -0.000001
    11  C   -0.000039  -0.000036
    12  C    0.002737  -0.001736
    13  C   -0.017386  -0.014101
    14  N    0.304542   0.302156
    15  H    0.000000   0.000000
    16  H    0.000000   0.000000
    17  H    0.000000   0.000000
    18  H    0.000000   0.000000
    19  H    0.000000   0.000000
    20  H    0.000000   0.000000
    21  H    0.000000   0.000000
    22  H    0.000000   0.000000
    23  H    0.000000   0.000000
    24  H    0.000000   0.000000
    25  H    0.000000   0.000000
    26  H    0.000000   0.000000
    27  H    0.000000   0.000000
    28  H    0.000000   0.000000
    29  H    0.000000   0.000000
    30  H    0.000000   0.000000
    31  H    0.000000   0.000000
    32  H    0.000000   0.000000
    33  H    0.000000   0.000000
    34  H    0.000000   0.000000
    35  H    0.000000   0.000000
    36  H    0.000000   0.000001
    37  H    0.000000   0.000005
    38  H   -0.000070   0.001574
    39  H   -0.000070  -0.000004
    40  H   -0.001755   0.002130
    41  H   -0.001755  -0.001544
    42  H   -0.007910  -0.008747
    43  H    0.228394  -0.007910
    44  H   -0.007910   0.245898
 Mulliken atomic charges:
              1
     1  N   -0.854818
     2  C   -0.215799
     3  C   -0.388992
     4  C   -0.187118
     5  N   -0.788933
     6  C   -0.181221
     7  C   -0.373197
     8  C   -0.373197
     9  C   -0.181221
    10  N   -0.788933
    11  C   -0.187118
    12  C   -0.388992
    13  C   -0.215799
    14  N   -0.854818
    15  H    0.501224
    16  H    0.482315
    17  H    0.482315
    18  H    0.286531
    19  H    0.286531
    20  H    0.239878
    21  H    0.239878
    22  H    0.275161
    23  H    0.275161
    24  H    0.464441
    25  H    0.464441
    26  H    0.268046
    27  H    0.268046
    28  H    0.228055
    29  H    0.228055
    30  H    0.228055
    31  H    0.228055
    32  H    0.268046
    33  H    0.268046
    34  H    0.464441
    35  H    0.464441
    36  H    0.275161
    37  H    0.275161
    38  H    0.239878
    39  H    0.239878
    40  H    0.286531
    41  H    0.286531
    42  H    0.482315
    43  H    0.501224
    44  H    0.482315
 Sum of Mulliken atomic charges =   4.00000
 Mulliken charges with hydrogens summed into heavy atoms:
              1
     1  N    0.611037
     2  C    0.357263
     3  C    0.090763
     4  C    0.363204
     5  N    0.139949
     6  C    0.354871
     7  C    0.082913
     8  C    0.082913
     9  C    0.354871
    10  N    0.139949
    11  C    0.363204
    12  C    0.090763
    13  C    0.357263
    14  N    0.611037
 Sum of Mulliken charges with hydrogens summed into heavy atoms =   4.00000
 DipInt: DoE/N= T F RetVal/Mat= T F Init=T NMatP=  1 IDeriv=0 Min/MaxMlt=  0  4
 Entering OneElI...
 OneElI was handed    33364931 working-precision words.
 Multipole integrals L=0 to 4 MinM= 0 MaxM= 0.
 Requested accuracy = 0.1000D-12
 PrsmSu:  NPrtUS=   1 ThrOK=F IAlg=1
 PRISM was handed    33019834 working-precision words and  4347 shell-pairs
 IPart=  0 NShTot=        4347 NBatch=          43 AvBLen=       101.1
 Electronic moments (au):
       -114.00000000          0.00000001          0.00000004         -0.00000292
     -11090.85124830       -217.20772011       -127.61117004        -14.37139126
         -0.00000654          0.00000006         -0.00027791         -0.00000195
         -0.00006182         -0.00001136         -0.00005437          0.01389960
         -0.00000187         -0.00000022         -0.00003426         -0.00038553
   -1944167.78816067      -1151.99384348       -560.02757109      11618.38170444
          0.03048056       -490.07618984         -0.00003698         -0.00012334
          0.00001547     -19446.51313017     -11697.84830457       -414.81580581
         -0.00047600         -0.00008743        -93.47445431
 Electronic spatial extent (au):  <R**2>=          11435.6701
 DipInt: DoE/N= F T RetVal/Mat= T F Init=T NMatP=  1 IDeriv=0 Min/MaxMlt=  0  4
 Nuclear    moments (au):
        118.00000000          0.00000000          0.00000000          0.00000000
      11587.69973050        165.54660648         73.93620630          0.00000000
         -0.00000002          0.00000000          0.00025334          0.00000218
          0.00003419          0.00001240          0.00006424         -0.01515782
          0.00000380          0.00000013          0.00002594          0.00042256
    2032749.29774935        477.97469006        196.18370030     -14768.82116683
         -0.03361700        350.82854652          0.00004952          0.00008399
         -0.00002163      14791.67632381       6828.93762272        291.46837453
          0.00052806          0.00006840        -13.59126008
 Total      moments (au):
          4.00000000          0.00000001          0.00000004         -0.00000292
        496.84848220        -51.66111363        -53.67496373        -14.37139126
         -0.00000656          0.00000006         -0.00002457          0.00000022
         -0.00002763          0.00000105          0.00000987         -0.00125823
          0.00000193         -0.00000008         -0.00000832          0.00003703
      88581.50958868       -674.01915342       -363.84387079      -3150.43946240
         -0.00313644       -139.24764333          0.00001254         -0.00003935
         -0.00000616      -4654.83680636      -4868.91068186       -123.34743128
          0.00005206         -0.00001903       -107.06571439
 Traceless Quadrup. (au):
        366.34434725       -182.16524857       -184.17909868        -14.37139126
         -0.00000656          0.00000006
 Charge=              4.0000 electrons
 Dipole moment (field-independent basis, Debye):
    X=              0.0000    Y=              0.0000    Z=              0.0000  Tot=              0.0000
 Quadrupole moment (field-independent basis, Debye-Ang):
   XX=            668.2782   YY=            -69.4860   ZZ=            -72.1947
   XY=            -19.3300   XZ=              0.0000   YZ=              0.0000
 Traceless Quadrupole moment (field-independent basis, Debye-Ang):
   XX=            492.7457   YY=           -245.0185   ZZ=           -247.7272
   XY=            -19.3300   XZ=              0.0000   YZ=              0.0000
 Octapole moment (field-independent basis, Debye-Ang**2):
  XXX=              0.0000  YYY=              0.0000  ZZZ=              0.0000  XYY=              0.0000
  XXY=              0.0000  XXZ=             -0.0009  XZZ=              0.0000  YZZ=              0.0000
  YYZ=              0.0000  XYZ=              0.0000
[...]
 1036 Fit       0.374820
 1037 Fit       0.389205
 1038 Fit       0.397248
 1039 Fit       0.397737
 1040 Fit       0.390271
 1041 Fit       0.373860
 1042 Fit       0.372948
 1043 Fit       0.378514
 1044 Fit       0.352758
 1045 Fit       0.357625
 1046 Fit       0.353089
 1047 Fit       0.346690
 1048 Fit       0.362059
 1049 Fit       0.377952
 1050 Fit       0.353695
 1051 Fit       0.352086
 1052 Fit       0.370101
 1053 Fit       0.381646
 1054 Fit       0.390493
 1055 Fit       0.361113
 1056 Fit       0.361113
 1057 Fit       0.377952
 1058 Fit       0.353695
 1059 Fit       0.352086
 1060 Fit       0.370101
 1061 Fit       0.381646
 1062 Fit       0.390493
 1063 Fit       0.353089
 1064 Fit       0.346690
 1065 Fit       0.362059
 1066 Fit       0.352758
 1067 Fit       0.357625
 1068 Fit       0.358774
 1069 Fit       0.380389
 1070 Fit       0.380808
 1071 Fit       0.375730
 1072 Fit       0.369544
 1073 Fit       0.351919
 1074 Fit       0.356366
 1075 Fit       0.363421
 1076 Fit       0.348207
 1077 Fit       0.359563
 1078 Fit       0.358378
 1079 Fit       0.356669
 1080 Fit       0.384346
 1081 Fit       0.358378
 1082 Fit       0.356669
 1083 Fit       0.384346
 1084 Fit       0.363421
 1085 Fit       0.348207
 1086 Fit       0.359563
 1087 Fit       0.380389
 1088 Fit       0.380808
 1089 Fit       0.375730
 1090 Fit       0.369544
 1091 Fit       0.351919
 1092 Fit       0.356366
 1093 Fit       0.358774
 1094 Fit       0.369472
 1095 Fit       0.354197
 1096 Fit       0.366259
 1097 Fit       0.352547
 1098 Fit       0.350427
 1099 Fit       0.376367
 1100 Fit       0.369544
 1101 Fit       0.351919
 1102 Fit       0.356366
 1103 Fit       0.380389
 1104 Fit       0.380808
 1105 Fit       0.375730
 1106 Fit       0.358774
 1107 Fit       0.358774
 1108 Fit       0.369544
 1109 Fit       0.351919
 1110 Fit       0.356366
 1111 Fit       0.380389
 1112 Fit       0.380808
 1113 Fit       0.375730
 1114 Fit       0.352547
 1115 Fit       0.350427
 1116 Fit       0.376367
 1117 Fit       0.369472
 1118 Fit       0.354197
 1119 Fit       0.366259
 1120 Fit       0.361113
 1121 Fit       0.370101
 1122 Fit       0.381646
 1123 Fit       0.390493
 1124 Fit       0.377952
 1125 Fit       0.353695
 1126 Fit       0.352086
 1127 Fit       0.346996
 1128 Fit       0.351794
 1129 Fit       0.358570
 1130 Fit       0.352558
 1131 Fit       0.367901
 1132 Fit       0.358570
 1133 Fit       0.352558
 1134 Fit       0.367901
 1135 Fit       0.346996
 1136 Fit       0.351794
 1137 Fit       0.370101
 1138 Fit       0.381646
 1139 Fit       0.390493
 1140 Fit       0.377952
 1141 Fit       0.353695
 1142 Fit       0.352086
 1143 Fit       0.361113
 1144 Fit       0.379960
 1145 Fit       0.383738
 1146 Fit       0.375937
 1147 Fit       0.370493
 1148 Fit       0.390271
 1149 Fit       0.373860
 1150 Fit       0.372948
 1151 Fit       0.389205
 1152 Fit       0.397248
 1153 Fit       0.397737
 1154 Fit       0.378514
 1155 Fit       0.378514
 1156 Fit       0.390271
 1157 Fit       0.373860
 1158 Fit       0.372948
 1159 Fit       0.389205
 1160 Fit       0.397248
 1161 Fit       0.397737
 1162 Fit       0.375937
 1163 Fit       0.370493
 1164 Fit       0.379960
 1165 Fit       0.383738
 1166 Fit       0.357882
 1167 Fit       0.377332
 1168 Fit       0.389770
 1169 Fit       0.379634
 1170 Fit       0.364846
 1171 Fit       0.346086
 1172 Fit       0.351288
 1173 Fit       0.354398
 1174 Fit       0.341104
 1175 Fit       0.351116
 1176 Fit       0.351350
 1177 Fit       0.349371
 1178 Fit       0.369722
 1179 Fit       0.351350
 1180 Fit       0.349371
 1181 Fit       0.369722
 1182 Fit       0.354398
 1183 Fit       0.341104
 1184 Fit       0.351116
 1185 Fit       0.377332
 1186 Fit       0.389770
 1187 Fit       0.379634
 1188 Fit       0.364846
 1189 Fit       0.346086
 1190 Fit       0.351288
 1191 Fit       0.357882
 1192 Fit       0.385981
 1193 Fit       0.355185
 1194 Fit       0.355380
 1195 Fit       0.358355
 1196 Fit       0.343763
 1197 Fit       0.358902
 1198 Fit       0.379013
 1199 Fit       0.353452
 1200 Fit       0.345846
 1201 Fit       0.363802
 1202 Fit       0.370779
 1203 Fit       0.378221
 1204 Fit       0.353807
 1205 Fit       0.353807
 1206 Fit       0.379013
 1207 Fit       0.353452
 1208 Fit       0.345846
 1209 Fit       0.363802
 1210 Fit       0.370779
 1211 Fit       0.378221
 1212 Fit       0.358355
 1213 Fit       0.343763
 1214 Fit       0.358902
 1215 Fit       0.385981
 1216 Fit       0.355185
 1217 Fit       0.355380
 1218 Fit       0.338169
 1219 Fit       0.361336
 1220 Fit       0.368813
 1221 Fit       0.362344
 1222 Fit       0.337652
 1223 Fit       0.321768
 1224 Fit       0.334366
 1225 Fit       0.342895
 1226 Fit       0.320296
 1227 Fit       0.318645
 1228 Fit       0.336226
 1229 Fit       0.337141
 1230 Fit       0.323538
 1231 Fit       0.331505
 1232 Fit       0.359417
 1233 Fit       0.337141
 1234 Fit       0.323538
 1235 Fit       0.331505
 1236 Fit       0.359417
 1237 Fit       0.342895
 1238 Fit       0.320296
 1239 Fit       0.318645
 1240 Fit       0.336226
 1241 Fit       0.361336
 1242 Fit       0.368813
 1243 Fit       0.362344
 1244 Fit       0.337652
 1245 Fit       0.321768
 1246 Fit       0.334366
 1247 Fit       0.338169
 1248 Fit       0.338452
 1249 Fit       0.368537
 1250 Fit       0.344310
 1251 Fit       0.324156
 1252 Fit       0.324478
 1253 Fit       0.342913
 1254 Fit       0.365866
 1255 Fit       0.351279
 1256 Fit       0.328630
 1257 Fit       0.318282
 1258 Fit       0.319803
 1259 Fit       0.348140
 1260 Fit       0.331727
 1261 Fit       0.326241
 1262 Fit       0.331282
 1263 Fit       0.335460
 1264 Fit       0.318249
 1265 Fit       0.309582
 1266 Fit       0.315142
 1267 Fit       0.335488
 1268 Fit       0.311003
 1269 Fit       0.303963
 1270 Fit       0.307405
 1271 Fit       0.321403
 1272 Fit       0.318249
 1273 Fit       0.309582
 1274 Fit       0.315142
 1275 Fit       0.335488
 1276 Fit       0.331282
 1277 Fit       0.335460
 1278 Fit       0.348140
 1279 Fit       0.331727
 1280 Fit       0.326241
 1281 Fit       0.351279
 1282 Fit       0.328630
 1283 Fit       0.318282
 1284 Fit       0.319803
 1285 Fit       0.368537
 1286 Fit       0.344310
 1287 Fit       0.324156
 1288 Fit       0.324478
 1289 Fit       0.342913
 1290 Fit       0.365866
 1291 Fit       0.338452
 1292 Fit       0.330008
 1293 Fit       0.312402
 1294 Fit       0.316185
 1295 Fit       0.327471
 1296 Fit       0.306103
 1297 Fit       0.306256
 1298 Fit       0.350016
 1299 Fit       0.315723
 1300 Fit       0.305427
 1301 Fit       0.301007
 1302 Fit       0.350016
 1303 Fit       0.315723
 1304 Fit       0.305427
 1305 Fit       0.301007
 1306 Fit       0.306103
 1307 Fit       0.306256
 1308 Fit       0.312402
 1309 Fit       0.316185
 1310 Fit       0.327471
 1311 Fit       0.330008
 1312 Fit       0.317431
 1313 Fit       0.317431
 1314 Fit       0.358417
 1315 Fit       0.358417
 1316 Fit       0.376198
 1317 Fit       0.376198
 1318 Fit       0.359523
 1319 Fit       0.359523
 1320 Fit       0.343837
 1321 Fit       0.343837
 1322 Fit       0.322107
 1323 Fit       0.322107
 1324 Fit       0.330008
 1325 Fit       0.313340
 1326 Fit       0.320731
 1327 Fit       0.305190
 1328 Fit       0.309978
 1329 Fit       0.302347
 1330 Fit       0.301570
 1331 Fit       0.309978
 1332 Fit       0.302347
 1333 Fit       0.301570
 1334 Fit       0.305190
 1335 Fit       0.313340
 1336 Fit       0.320731
 1337 Fit       0.330008
 1338 Fit       0.299651
 1339 Fit       0.298434
 1340 Fit       0.310611
 1341 Fit       0.290850
 1342 Fit       0.289135
 1343 Fit       0.296149
 1344 Fit       0.313042
 1345 Fit       0.290850
 1346 Fit       0.289135
 1347 Fit       0.296149
 1348 Fit       0.313042
 1349 Fit       0.299651
 1350 Fit       0.298434
 1351 Fit       0.310611
 1352 Fit       0.332706
 1353 Fit       0.314299
 1354 Fit       0.305372
 1355 Fit       0.305348
 1356 Fit       0.306927
 1357 Fit       0.321922
 1358 Fit       0.306184
 1359 Fit       0.301251
 1360 Fit       0.309648
 1361 Fit       0.325736
 1362 Fit       0.346530
 1363 Fit       0.349694
 1364 Fit       0.328539
 1365 Fit       0.310023
 1366 Fit       0.323382
 1367 Fit       0.323382
 1368 Fit       0.309648
 1369 Fit       0.325736
 1370 Fit       0.346530
 1371 Fit       0.349694
 1372 Fit       0.328539
 1373 Fit       0.310023
 1374 Fit       0.306927
 1375 Fit       0.321922
 1376 Fit       0.306184
 1377 Fit       0.301251
 1378 Fit       0.332706
 1379 Fit       0.314299
 1380 Fit       0.305372
 1381 Fit       0.305348
 1382 Fit       0.310347
 1383 Fit       0.307375
 1384 Fit       0.319806
 1385 Fit       0.312980
 1386 Fit       0.304487
 1387 Fit       0.312811
 1388 Fit       0.337494
 1389 Fit       0.323192
 1390 Fit       0.310737
 1391 Fit       0.322593
 1392 Fit       0.346127
 1393 Fit       0.352355
 1394 Fit       0.344146
 1395 Fit       0.326076
 1396 Fit       0.326076
 1397 Fit       0.323192
 1398 Fit       0.310737
 1399 Fit       0.322593
 1400 Fit       0.346127
 1401 Fit       0.352355
 1402 Fit       0.344146
 1403 Fit       0.312980
 1404 Fit       0.304487
 1405 Fit       0.312811
 1406 Fit       0.337494
 1407 Fit       0.310347
 1408 Fit       0.307375
 1409 Fit       0.319806
 1410 Fit       0.341781
 1411 Fit       0.347371
 1412 Fit       0.354992
 1413 Fit       0.362310
 1414 Fit       0.362147
 1415 Fit       0.340961
 1416 Fit       0.333656
 1417 Fit       0.359519
 1418 Fit       0.334602
 1419 Fit       0.333162
 1420 Fit       0.342731
 1421 Fit       0.335386
 1422 Fit       0.342731
 1423 Fit       0.335386
 1424 Fit       0.359519
 1425 Fit       0.334602
 1426 Fit       0.333162
 1427 Fit       0.347371
 1428 Fit       0.354993
 1429 Fit       0.362310
 1430 Fit       0.362147
 1431 Fit       0.340961
 1432 Fit       0.333656
 1433 Fit       0.341781
 1434 Fit       0.332006
 1435 Fit       0.336150
 1436 Fit       0.331462
 1437 Fit       0.331119
 1438 Fit       0.350121
 1439 Fit       0.350212
 1440 Fit       0.334562
 1441 Fit       0.339553
 1442 Fit       0.361546
 1443 Fit       0.371610
 1444 Fit       0.363642
 1445 Fit       0.345761
 1446 Fit       0.345761
 1447 Fit       0.350212
 1448 Fit       0.334562
 1449 Fit       0.339553
 1450 Fit       0.361546
 1451 Fit       0.371610
 1452 Fit       0.363642
 1453 Fit       0.331462
 1454 Fit       0.331119
 1455 Fit       0.350121
 1456 Fit       0.332006
 1457 Fit       0.336150
 1458 Fit       0.363447
 1459 Fit       0.371499
 1460 Fit       0.378626
 1461 Fit       0.379464
 1462 Fit       0.373237
 1463 Fit       0.358963
 1464 Fit       0.357839
 1465 Fit       0.354933
 1466 Fit       0.358092
 1467 Fit       0.361114
 1468 Fit       0.360181
 1469 Fit       0.361114
 1470 Fit       0.360181
 1471 Fit       0.354933
 1472 Fit       0.358092
 1473 Fit       0.371499
 1474 Fit       0.378626
 1475 Fit       0.379464
 1476 Fit       0.373237
 1477 Fit       0.358963
 1478 Fit       0.357840
 1479 Fit       0.363447
 1480 Fit       0.339286
 1481 Fit       0.339268
 1482 Fit       0.340426
 1483 Fit       0.335153
 1484 Fit       0.349010
 1485 Fit       0.362301
 1486 Fit       0.342307
 1487 Fit       0.341311
 1488 Fit       0.357060
 1489 Fit       0.367068
 1490 Fit       0.372891
 1491 Fit       0.349604
 1492 Fit       0.349604
 1493 Fit       0.362301
 1494 Fit       0.342306
 1495 Fit       0.341311
 1496 Fit       0.357060
 1497 Fit       0.367068
 1498 Fit       0.372891
 1499 Fit       0.340426
 1500 Fit       0.335153
 1501 Fit       0.349010
 1502 Fit       0.339286
 1503 Fit       0.339268
 1504 Fit       0.348278
 1505 Fit       0.364619
 1506 Fit       0.366478
 1507 Fit       0.362776
 1508 Fit       0.356720
 1509 Fit       0.341669
 1510 Fit       0.345119
 1511 Fit       0.350294
 1512 Fit       0.337162
 1513 Fit       0.346637
 1514 Fit       0.341168
 1515 Fit       0.345163
 1516 Fit       0.341168
 1517 Fit       0.345163
 1518 Fit       0.350294
 1519 Fit       0.337162
 1520 Fit       0.346637
 1521 Fit       0.364619
 1522 Fit       0.366478
 1523 Fit       0.362776
 1524 Fit       0.356720
 1525 Fit       0.341669
 1526 Fit       0.345119
 1527 Fit       0.348278
 1528 Fit       0.341168
 1529 Fit       0.345163
 1530 Fit       0.341018
 1531 Fit       0.338966
 1532 Fit       0.360338
 1533 Fit       0.356720
 1534 Fit       0.341669
 1535 Fit       0.345119
 1536 Fit       0.364619
 1537 Fit       0.366478
 1538 Fit       0.362776
 1539 Fit       0.348278
 1540 Fit       0.348278
 1541 Fit       0.356720
 1542 Fit       0.341669
 1543 Fit       0.345119
 1544 Fit       0.364619
 1545 Fit       0.366478
 1546 Fit       0.362776
 1547 Fit       0.341018
 1548 Fit       0.338966
 1549 Fit       0.360338
 1550 Fit       0.341168
 1551 Fit       0.345163
 1552 Fit       0.349604
 1553 Fit       0.357060
 1554 Fit       0.367068
 1555 Fit       0.372891
 1556 Fit       0.362301
 1557 Fit       0.342307
 1558 Fit       0.341311
 1559 Fit       0.335252
 1560 Fit       0.339861
 1561 Fit       0.339286
 1562 Fit       0.339268
 1563 Fit       0.339286
 1564 Fit       0.339268
 1565 Fit       0.335252
 1566 Fit       0.339861
 1567 Fit       0.357060
 1568 Fit       0.367068
 1569 Fit       0.372891
 1570 Fit       0.362301
 1571 Fit       0.342307
 1572 Fit       0.341311
 1573 Fit       0.349604
 1574 Fit       0.361114
 1575 Fit       0.360181
 1576 Fit       0.359635
 1577 Fit       0.354361
 1578 Fit       0.373237
 1579 Fit       0.358963
 1580 Fit       0.357840
 1581 Fit       0.371499
 1582 Fit       0.378626
 1583 Fit       0.379464
 1584 Fit       0.363447
 1585 Fit       0.363447
 1586 Fit       0.373237
 1587 Fit       0.358963
 1588 Fit       0.357839
 1589 Fit       0.371499
 1590 Fit       0.378626
 1591 Fit       0.379464
 1592 Fit       0.359635
 1593 Fit       0.354361
 1594 Fit       0.361114
 1595 Fit       0.360181
 1596 Fit       0.345761
 1597 Fit       0.361546
 1598 Fit       0.371610
 1599 Fit       0.363642
 1600 Fit       0.350212
 1601 Fit       0.334562
 1602 Fit       0.339553
 1603 Fit       0.339326
 1604 Fit       0.328794
 1605 Fit       0.338272
 1606 Fit       0.332006
 1607 Fit       0.336150
 1608 Fit       0.332006
 1609 Fit       0.336150
 1610 Fit       0.339326
 1611 Fit       0.328794
 1612 Fit       0.338272
 1613 Fit       0.361546
 1614 Fit       0.371610
 1615 Fit       0.363642
 1616 Fit       0.350212
 1617 Fit       0.334562
 1618 Fit       0.339553
 1619 Fit       0.345761
 1620 Fit       0.342731
 1621 Fit       0.335386
 1622 Fit       0.344188
 1623 Fit       0.330866
 1624 Fit       0.341827
 1625 Fit       0.362147
 1626 Fit       0.340961
 1627 Fit       0.333656
 1628 Fit       0.347371
 1629 Fit       0.354993
 1630 Fit       0.362310
 1631 Fit       0.341781
 1632 Fit       0.341781
 1633 Fit       0.362147
 1634 Fit       0.340961
 1635 Fit       0.333656
 1636 Fit       0.347371
 1637 Fit       0.354992
 1638 Fit       0.362310
 1639 Fit       0.344188
 1640 Fit       0.330866
 1641 Fit       0.341827
 1642 Fit       0.342731
 1643 Fit       0.335386
 1644 Fit       0.326076
 1645 Fit       0.346127
 1646 Fit       0.352355
 1647 Fit       0.344146
 1648 Fit       0.323192
 1649 Fit       0.310737
 1650 Fit       0.322593
 1651 Fit       0.323530
 1652 Fit       0.306593
 1653 Fit       0.306585
 1654 Fit       0.323137
 1655 Fit       0.310347
 1656 Fit       0.307375
 1657 Fit       0.319806
 1658 Fit       0.310347
 1659 Fit       0.307375
 1660 Fit       0.319806
 1661 Fit       0.323530
 1662 Fit       0.306593
 1663 Fit       0.306585
 1664 Fit       0.323137
 1665 Fit       0.346127
 1666 Fit       0.352355
 1667 Fit       0.344146
 1668 Fit       0.323192
 1669 Fit       0.310737
 1670 Fit       0.322593
 1671 Fit       0.326076
 1672 Fit       0.323382
 1673 Fit       0.349694
 1674 Fit       0.328539
 1675 Fit       0.310023
 1676 Fit       0.309648
 1677 Fit       0.325736
 1678 Fit       0.346530
 1679 Fit       0.334074
 1680 Fit       0.312660
 1681 Fit       0.302396
 1682 Fit       0.302761
 1683 Fit       0.332706
 1684 Fit       0.314299
 1685 Fit       0.305372
 1686 Fit       0.305348
 1687 Fit       0.305678
 1688 Fit       0.297367
 1689 Fit       0.302779
 1690 Fit       0.322460
 1691 Fit       0.290850
 1692 Fit       0.289135
 1693 Fit       0.296149
 1694 Fit       0.313042
 1695 Fit       0.290850
 1696 Fit       0.289135
 1697 Fit       0.296149
 1698 Fit       0.313042
 1699 Fit       0.305678
 1700 Fit       0.297367
 1701 Fit       0.302779
 1702 Fit       0.322460
 1703 Fit       0.332706
 1704 Fit       0.314299
 1705 Fit       0.305372
 1706 Fit       0.305348
 1707 Fit       0.334074
 1708 Fit       0.312660
 1709 Fit       0.302396
 1710 Fit       0.302761
 1711 Fit       0.349694
 1712 Fit       0.328539
 1713 Fit       0.310023
 1714 Fit       0.309648
 1715 Fit       0.325736
 1716 Fit       0.346530
 1717 Fit       0.323382
 -----------------------------------------------------------------
 Leave Link  602 at Fri Mar 17 16:26:04 2023, MaxMem=   33554432 cpu:       0.8
 (Enter /share/apps/g09/l9999.exe)

 Test job not archived.
 1\1\GINC-COMPUTE-0-25\SP\RHF\6-31G(d)\C10H30N4(4+)\SLABANDA\17-Mar-202
 3\0\\#P HF/6-31G* POP(MK) IOP(6/33=2) scf=direct Test geom=allcheck gu
 ess=read\\Optimizacion de estructura de espermina\\4,1\N,0,-0.31352147
 ,0.0143126462,8.2224188495\C,0,0.5008071602,-0.022152485,6.9550354218\
 C,0,-0.3896831084,0.0146351497,5.7020776096\C,0,0.4860900985,-0.024466
 5283,4.4377937333\N,0,-0.3451495307,0.0097619165,3.1735463858\C,0,0.47
 05079096,-0.026776642,1.8932955513\C,0,-0.4245992551,0.0102141435,0.64
 53284893\C,0,0.4204274503,-0.0276034577,-0.6495376105\C,0,-0.474679709
 6,0.0093874716,-1.8975046641\N,0,0.340977755,-0.0271510676,-3.17775548
 44\C,0,-0.4902618412,0.0070772242,-4.4420028194\C,0,0.3855113272,-0.03
 20253605,-5.7062866916\C,0,-0.5049789901,0.0047610078,-6.9592445377\N,
 0,0.3093494919,-0.0317062509,-8.226627924\H,0,0.2957732904,-0.01091232
 09,9.0336352893\H,0,-0.9404279835,-0.7759649655,8.312038556\H,0,-0.870
 3368545,0.8556483089,8.3101293116\H,0,1.0907330613,-0.9272184535,7.003
 7222393\H,0,1.1661813515,0.8290995813,7.0016670214\H,0,-0.9913740876,0
 .919825138,5.706912424\H,0,-1.0667846702,-0.8356061838,5.7089670453\H,
 0,1.0757558071,-0.9301114695,4.3907419852\H,0,1.1512450993,0.827160971
 9,4.3886847346\H,0,-0.9205069819,0.8413187072,3.1747744172\H,0,-0.9897
 002202,-0.7693844673,3.17666049\H,0,1.0599839575,-0.9325750117,1.93670
 24504\H,0,1.1354964445,0.8252312418,1.9346438757\H,0,-1.0291477247,0.9
 13238984,0.6565153613\H,0,-1.1043614824,-0.8376101,0.6585659672\H,0,1.
 024975891,-0.9306283257,-0.6607245204\H,0,1.1001897632,0.8202207243,-0
 .6627750582\H,0,-1.064155655,0.9151859072,-1.9409115375\H,0,-1.1396683
 301,-0.8426203464,-1.9388530116\H,0,0.9163351706,-0.8587078796,-3.1789
 834368\H,0,0.9855284765,0.7519953061,-3.1808695867\H,0,-1.079927256,0.
 9127223717,-4.3949514634\H,0,-1.1554171431,-0.8445500161,-4.3928934887
 \H,0,0.9872023839,-0.9372153109,-5.7111207365\H,0,1.0626128651,0.81821
 59849,-5.7131768598\H,0,-1.0949045534,0.9098271537,-7.007932482\H,0,-1
 .1703535402,-0.8464908452,-7.0058748746\H,0,0.9362563647,0.7585709579,
 -8.3162487986\H,0,-0.2999452909,-0.0064821874,-9.0378443748\H,0,0.8661
 645139,-0.8730422817,-8.3143372464\\Version=EM64L-G09RevA.01\State=1-A
 \HF=-612.6310788\RMSD=4.697e-09\Dipole=0.,-0.0000029,0.\Quadrupole=-18
 2.1187229,-184.1730036,366.2917265,-0.1064119,-15.2874107,1.3013181\PG
 =C01 [X(C10H30N4)]\\@


 THAT'S WHAT MAKES US A GREAT COUNTRY.
 THE LITTLE THINGS ARE SERIOUS AND THE BIG ONES ARE NOT.
           WILL ROGERS
 Job cpu time:  0 days  0 hours  2 minutes 26.7 seconds.
 File lengths (MBytes):  RWF=     96 Int=      0 D2E=      0 Chk=     10 Scr=      2
 Normal termination of Gaussian 09 at Fri Mar 17 16:26:05 2023.
